37
Lattice="8.15884676 0.0 0.0 4.07942338 7.06576816 0.0 0.0 0.0 21.83842631" Properties=species:S:1:pos:R:3:move_mask:L:1:forces:R:3 energy=-342.57020453999996 stress="0.05224700550068094 -1.8107117294917403e-06 1.309686443278801e-05 -1.8107117294917403e-06 0.052264129630220604 0.0002555863845994276 1.309686443278801e-05 0.0002555863845994276 0.018672083983513835" free_energy=-342.57025567 pbc="T T T"
Ru       0.00768979       0.00832602      21.60405282  T      -0.00839702      -0.01339730      -0.03446887
Ru       1.37151010       2.35176201      21.60069779  T      -0.01220817       0.00377616      -0.03656764
Ru       2.71983385       0.01746114      21.60066940  T      -0.00132427      -0.01814494      -0.03673534
Ru       4.06819411       2.35175784      21.60070194  T       0.01012953       0.00339973      -0.03774786
Ru       5.43199479       0.00833492      21.60403295  T       0.00856238      -0.01354656      -0.03308973
Ru       2.71984099       4.70477211      21.60330857  T      -0.00136870       0.01259931      -0.02364030
Ru       8.16923701       4.72103136      21.62309419  T      -0.02976570      -0.02289187      -0.03730495
Ru       6.79928366       2.35114587      21.62444839  T       0.00053289       0.02051632      -0.04754876
Ru       5.42932873       4.72102507      21.62312127  T       0.03100330      -0.02301619      -0.03796878
Ru       1.35774571       0.78597337      19.55753066  T      -0.00329705      -0.00573313       0.06303881
Ru       4.08179601       0.78597591      19.55752476  T       0.00112251      -0.00535590       0.06291862
Ru       2.71977025       3.14459087      19.55748873  T      -0.00166425       0.00622533       0.06230902
Ru       5.43968247       3.14304629      19.56202588  T      -0.00155503       0.00174442       0.07215917
Ru       6.79916234       0.78232390      19.55809583  T      -0.00085092      -0.00732293       0.06210922
Ru       4.07356986       5.50118346      19.55619851  T      -0.00323083       0.00317710       0.06360819
Ru       9.52478000       5.50120826      19.55619982  T       0.00298375       0.00311502       0.06325474
Ru       6.79918270       5.49767297      19.56171643  T       0.00047324       0.00334147       0.06894737
Ru       8.15867579       3.14306671      19.56201212  T       0.00164277       0.00157964       0.07211842
Ru       0.00000000       0.00000000      17.47074105  F       0.03138842       0.03089267      -1.25062191
Ru       1.35980778       2.35525603      17.47074105  F       0.01232373       0.00079932      -1.15756889
Ru       2.71961556       0.00000000      17.47074105  F       0.00093832       0.02245196      -1.15585433
Ru       4.07942334       2.35525603      17.47074105  F      -0.01097354       0.00050681      -1.15783970
Ru       5.43923120       0.00000000      17.47074105  F      -0.03030273       0.03075972      -1.25076178
Ru       2.71961560       4.71051213      17.47074105  F       0.00040066      -0.03223718      -1.25611859
Ru       8.15884680       4.71051213      17.47074105  F       0.02201660       0.02342968      -1.14765233
Ru       6.79903898       2.35525603      17.47074105  F       0.00068069      -0.01347542      -1.14750897
Ru       5.43923116       4.71051213      17.47074105  F      -0.02043390       0.02324266      -1.14782821
Ru       1.35980778       0.78508534      15.28689842  F      -0.02722514      -0.01940608       1.15756962
Ru       4.07942334       0.78508534      15.28689842  F       0.02784373      -0.01954840       1.15698136
Ru       2.71961556       3.14034137      15.28689842  F       0.00019298       0.03497789       1.15790669
Ru       5.43923112       3.14034137      15.28689842  F       0.01052715       0.00926310       1.15459561
Ru       6.79903898       0.78508534      15.28689842  F      -0.00024509      -0.01088077       1.17183812
Ru       4.07942338       5.49559747      15.28689842  F      -0.00581932       0.00361736       1.16606519
Ru       9.51865458       5.49559747      15.28689842  F       0.00574471       0.00386383       1.16559315
Ru       6.79903894       5.49559747      15.28689842  F       0.00044519      -0.01200785       1.15009785
Ru       8.15884676       3.14034137      15.28689842  F      -0.01036056       0.00967279       1.15468659
H        6.79939173       3.94924690       0.85859673  T       0.00006969      -0.03598777      -0.02897077
37
Lattice="8.15884676 0.0 0.0 4.07942338 7.06576816 0.0 0.0 0.0 21.83842631" Properties=species:S:1:pos:R:3:move_mask:L:1:forces:R:3 energy=-342.57097737 stress="0.05226103499637336 -1.4692762142694225e-06 1.1996810932369337e-05 -1.4692762142694225e-06 0.05228584717343543 0.00025993132379628343 1.1996810932369337e-05 0.00025993132379628343 0.018729998734481598" free_energy=-342.57101908 pbc="T T T"
Ru       0.00760874       0.00819679      21.60372023  T      -0.00824616      -0.01163890      -0.02214793
Ru       1.37139236       2.35179847      21.60034488  T      -0.01051453       0.00197541      -0.02443225
Ru       2.71982104       0.01728605      21.60031496  T      -0.00079785      -0.01292824      -0.02555039
Ru       4.06829190       2.35179069      21.60033789  T       0.00884701       0.00279208      -0.02499623
Ru       5.43207736       0.00820420      21.60371367  T       0.00825558      -0.01083945      -0.02242827
Ru       2.71982773       4.70489371      21.60308036  T      -0.00025703       0.00922923      -0.01230624
Ru       8.16894982       4.72081049      21.62273407  T      -0.02727105      -0.02248284      -0.03095552
Ru       6.79928889       2.35134386      21.62398956  T      -0.00007241       0.01623506      -0.03741826
Ru       5.42962791       4.72080307      21.62275503  T       0.02733507      -0.02316042      -0.03045646
Ru       1.35771393       0.78591804      19.55813886  T      -0.00378145      -0.00263056       0.05079182
Ru       4.08180691       0.78592426      19.55813187  T       0.00237860      -0.00321661       0.05109859
Ru       2.71975418       3.14465093      19.55808994  T       0.00023007       0.00407332       0.05074944
Ru       5.43966745       3.14306311      19.56272209  T      -0.00188681       0.00128653       0.05440151
Ru       6.79915410       0.78225324      19.55869508  T       0.00002539      -0.00577568       0.04988384
Ru       4.07353865       5.50121405      19.55681217  T      -0.00362694       0.00227214       0.04958328
Ru       9.52480876       5.50123829      19.55681021  T       0.00343928       0.00224346       0.04935291
Ru       6.79918727       5.49770519      19.56238162  T      -0.00058992       0.00301115       0.05725198
Ru       8.15869162       3.14308197      19.56270789  T       0.00169970       0.00114322       0.05372878
Ru       0.00000000       0.00000000      17.47074105  F       0.03066719       0.03215801      -1.24802871
Ru       1.35980778       2.35525603      17.47074105  F       0.01186276       0.00090336      -1.15344258
Ru       2.71961556       0.00000000      17.47074105  F       0.00063322       0.02383286      -1.15372631
Ru       4.07942334       2.35525603      17.47074105  F      -0.01069777       0.00090046      -1.15345024
Ru       5.43923120       0.00000000      17.47074105  F      -0.02967519       0.03217772      -1.24827760
Ru       2.71961560       4.71051213      17.47074105  F       0.00051558      -0.03332622      -1.25242883
Ru       8.15884680       4.71051213      17.47074105  F       0.02231138       0.02166219      -1.14475262
Ru       6.79903898       2.35525603      17.47074105  F       0.00050929      -0.01391669      -1.14397044
Ru       5.43923116       4.71051213      17.47074105  F      -0.02114304       0.02153444      -1.14461262
Ru       1.35980778       0.78508534      15.28689842  F      -0.02910615      -0.01752962       1.15715972
Ru       4.07942334       0.78508534      15.28689842  F       0.02916611      -0.01753096       1.15741086
Ru       2.71961556       3.14034137      15.28689842  F       0.00004003       0.03396870       1.15701157
Ru       5.43923112       3.14034137      15.28689842  F       0.01123177       0.00700112       1.15243275
Ru       6.79903898       0.78508534      15.28689842  F      -0.00000357      -0.00899608       1.16803623
Ru       4.07942338       5.49559747      15.28689842  F      -0.00661118       0.00424022       1.16748273
Ru       9.51865458       5.49559747      15.28689842  F       0.00662996       0.00425413       1.16764875
Ru       6.79903894       5.49559747      15.28689842  F       0.00006254      -0.01286374       1.15362781
Ru       8.15884676       3.14034137      15.28689842  F      -0.01119600       0.00703991       1.15239401
H        6.79939246       3.94889969       0.85831742  T      -0.00036350      -0.03709876      -0.02666509
37
Lattice="8.15884676 0.0 0.0 4.07942338 7.06576816 0.0 0.0 0.0 21.83842631" Properties=species:S:1:pos:R:3:move_mask:L:1:forces:R:3 energy=-342.57148507 stress="0.05211715407400358 -1.067628860509709e-06 1.2106780081658273e-05 -1.067628860509709e-06 0.05212114186780674 0.000252147169516356 1.2106780081658273e-05 0.000252147169516356 0.0185427748004248" free_energy=-342.57135766 pbc="T T T"
Ru       0.00727639       0.00772769      21.60282769  T      -0.00581099      -0.00716130       0.01010037
Ru       1.37096863       2.35187810      21.59936040  T      -0.00531851       0.00146358       0.00352103
Ru       2.71978893       0.01676509      21.59928528  T       0.00053196      -0.00779273       0.00624226
Ru       4.06864844       2.35190318      21.59933048  T       0.00469528       0.00174859       0.00353444
Ru       5.43241008       0.00776740      21.60280978  T       0.00416621      -0.00684925       0.01037770
Ru       2.71981745       4.70526566      21.60258441  T      -0.00023246       0.00562984       0.01372888
Ru       8.16785086       4.71990444      21.62148666  T      -0.01527266      -0.01614346      -0.00276870
Ru       6.79928591       2.35199807      21.62248162  T      -0.00146145       0.00621053      -0.00894074
Ru       5.43072952       4.71986968      21.62152772  T       0.01502106      -0.01574843      -0.00231666
Ru       1.35756153       0.78581206      19.56018577  T      -0.00439067      -0.00094472       0.00906938
Ru       4.08190273       0.78579461      19.56019101  T       0.00341215      -0.00043740       0.00891750
Ru       2.71976344       3.14481506      19.56013511  T      -0.00078090      -0.00099355       0.00990302
Ru       5.43959141       3.14311497      19.56491445  T      -0.00210655      -0.00191473      -0.00696439
Ru       6.79915516       0.78202050      19.56070531  T      -0.00034261      -0.00340882       0.00637492
Ru       4.07339252       5.50130562      19.55881039  T       0.00077289      -0.00353136       0.00543951
Ru       9.52494738       5.50132873      19.55879903  T      -0.00051963      -0.00214933       0.00595279
Ru       6.79916353       5.49782658      19.56468885  T      -0.00035537       0.00179516      -0.00523616
Ru       8.15876015       3.14312804      19.56487317  T       0.00179837      -0.00275084      -0.00691124
Ru       0.00000000       0.00000000      17.47074105  F       0.03120483       0.03283936      -1.23390581
Ru       1.35980778       2.35525603      17.47074105  F       0.01172382       0.00068572      -1.13808754
Ru       2.71961556       0.00000000      17.47074105  F       0.00054293       0.02409706      -1.13863233
Ru       4.07942334       2.35525603      17.47074105  F      -0.01037942       0.00064222      -1.13807391
Ru       5.43923120       0.00000000      17.47074105  F      -0.03008714       0.03292183      -1.23403369
Ru       2.71961560       4.71051213      17.47074105  F       0.00063544      -0.03386247      -1.23810536
Ru       8.15884680       4.71051213      17.47074105  F       0.02181383       0.02159549      -1.12969867
Ru       6.79903898       2.35525603      17.47074105  F       0.00056197      -0.01381801      -1.12858619
Ru       5.43923116       4.71051213      17.47074105  F      -0.02064355       0.02147707      -1.12957203
Ru       1.35980778       0.78508534      15.28689842  F      -0.02941811      -0.01714146       1.16050767
Ru       4.07942334       0.78508534      15.28689842  F       0.02961555      -0.01714419       1.16055742
Ru       2.71961556       3.14034137      15.28689842  F       0.00009178       0.03370292       1.16131205
Ru       5.43923112       3.14034137      15.28689842  F       0.01177074       0.00663694       1.15645273
Ru       6.79903898       0.78508534      15.28689842  F       0.00012389      -0.00822891       1.17190433
Ru       4.07942338       5.49559747      15.28689842  F      -0.00633632       0.00468263       1.17063761
Ru       9.51865458       5.49559747      15.28689842  F       0.00656871       0.00467459       1.17065394
Ru       6.79903894       5.49559747      15.28689842  F       0.00010437      -0.01298825       1.15633646
Ru       8.15884676       3.14034137      15.28689842  F      -0.01154603       0.00661272       1.15641967
H        6.79937782       3.94740465       0.85724275  T      -0.00015341      -0.03440706      -0.01611028
37
Lattice="8.15884676 0.0 0.0 4.07942338 7.06576816 0.0 0.0 0.0 21.83842631" Properties=species:S:1:pos:R:3:move_mask:L:1:forces:R:3 energy=-342.57157541000004 stress="0.05213757212877688 2.8127360875792904e-07 1.2024198674413713e-05 2.8127360875792904e-07 0.052143766414644716 0.0002494059236743046 1.2024198674413713e-05 0.0002494059236743046 0.01853142641363401" free_energy=-342.57145306 pbc="T T T"
Ru       0.00721242       0.00764770      21.60291024  T      -0.00516103      -0.00759722       0.01010783
Ru       1.37090773       2.35189414      21.59937591  T      -0.00439689       0.00131618       0.00403281
Ru       2.71979359       0.01667776      21.59932699  T       0.00046886      -0.00778641       0.00666597
Ru       4.06870188       2.35192268      21.59934577  T       0.00453353       0.00142746       0.00432991
Ru       5.43245777       0.00769102      21.60289473  T       0.00387564      -0.00699402       0.01103142
Ru       2.71981488       4.70532861      21.60271064  T      -0.00032072       0.00517626       0.01360631
Ru       8.16767826       4.71972702      21.62143490  T      -0.01356245      -0.01435968      -0.00198152
Ru       6.79927143       2.35207234      21.62236369  T      -0.00147053       0.00414914      -0.00803754
Ru       5.43089971       4.71969558      21.62148076  T       0.01305286      -0.01364641      -0.00229348
Ru       1.35751510       0.78580061      19.56031549  T      -0.00356490      -0.00158278       0.00686706
Ru       4.08193834       0.78578775      19.56031942  T       0.00225972      -0.00056212       0.00644452
Ru       2.71975593       3.14480842      19.56027312  T      -0.00007672      -0.00080901       0.00778365
Ru       5.43956906       3.14309702      19.56488824  T      -0.00229311      -0.00108177      -0.00735915
Ru       6.79915182       0.78198220      19.56080773  T      -0.00041547      -0.00395712       0.00458771
Ru       4.07339730       5.50127249      19.55890320  T       0.00112892      -0.00272619       0.00438820
Ru       9.52494493       5.50130923      19.55889687  T      -0.00092966      -0.00236545       0.00360266
Ru       6.79915949       5.49784672      19.56468208  T      -0.00034343       0.00155707      -0.00640960
Ru       8.15877920       3.14310169      19.56484718  T       0.00187785      -0.00220095      -0.00781903
Ru       0.00000000       0.00000000      17.47074105  F       0.03115748       0.03269840      -1.23301606
Ru       1.35980778       2.35525603      17.47074105  F       0.01211659       0.00038467      -1.13740466
Ru       2.71961556       0.00000000      17.47074105  F       0.00049317       0.02455814      -1.13777502
Ru       4.07942334       2.35525603      17.47074105  F      -0.01088174       0.00036311      -1.13737923
Ru       5.43923120       0.00000000      17.47074105  F      -0.03016017       0.03279819      -1.23313721
Ru       2.71961560       4.71051213      17.47074105  F       0.00056425      -0.03404393      -1.23707851
Ru       8.15884680       4.71051213      17.47074105  F       0.02203743       0.02172914      -1.12937297
Ru       6.79903898       2.35525603      17.47074105  F       0.00051590      -0.01434473      -1.12835278
Ru       5.43923116       4.71051213      17.47074105  F      -0.02092108       0.02160320      -1.12932478
Ru       1.35980778       0.78508534      15.28689842  F      -0.02953339      -0.01717077       1.16080081
Ru       4.07942334       0.78508534      15.28689842  F       0.02964879      -0.01716605       1.16085842
Ru       2.71961556       3.14034137      15.28689842  F       0.00005791       0.03374313       1.16138481
Ru       5.43923112       3.14034137      15.28689842  F       0.01155372       0.00646573       1.15737458
Ru       6.79903898       0.78508534      15.28689842  F       0.00008970      -0.00847187       1.17202804
Ru       4.07942338       5.49559747      15.28689842  F      -0.00662728       0.00477153       1.17061839
Ru       9.51865458       5.49559747      15.28689842  F       0.00678645       0.00475903       1.17063045
Ru       6.79903894       5.49559747      15.28689842  F       0.00006229      -0.01282254       1.15737587
Ru       8.15884676       3.14034137      15.28689842  F      -0.01141005       0.00644050       1.15731797
H        6.79937598       3.94703490       0.85706236  T      -0.00021248      -0.03425185      -0.01509586
37
Lattice="8.15884676 0.0 0.0 4.07942338 7.06576816 0.0 0.0 0.0 21.83842631" Properties=species:S:1:pos:R:3:move_mask:L:1:forces:R:3 energy=-342.57171272000005 stress="0.05212693190985302 -3.216037441257363e-06 1.1519965876660983e-05 -3.216037441257363e-06 0.05213539806135212 0.00023316252724588506 1.1519965876660983e-05 0.00023316252724588506 0.018577103225447342" free_energy=-342.57157002 pbc="T T T"
Ru       0.00687203       0.00714604      21.60359902  T      -0.00318101      -0.00733650       0.00700656
Ru       1.37061976       2.35198098      21.59965981  T      -0.00281416      -0.00010996       0.00242996
Ru       2.71982536       0.01616429      21.59978756  T      -0.00056464      -0.00769370       0.00007040
Ru       4.06900000       2.35201652      21.59964998  T       0.00189626      -0.00041278       0.00245873
Ru       5.43271224       0.00722934      21.60364576  T       0.00213365      -0.00735829       0.00669619
Ru       2.71979363       4.70566954      21.60362785  T       0.00016799       0.00186087       0.00717285
Ru       8.16678691       4.71877964      21.62132025  T      -0.00396986      -0.00527335      -0.00666840
Ru       6.79917307       2.35234020      21.62184765  T      -0.00002995      -0.00588203      -0.01051719
Ru       5.43175688       4.71879639      21.62134471  T       0.00275949      -0.00528175      -0.00703468
Ru       1.35727899       0.78569618      19.56074549  T       0.00033164      -0.00138148       0.00564383
Ru       4.08208794       0.78575193      19.56072081  T       0.00072393      -0.00245587       0.00638669
Ru       2.71975079       3.14475204      19.56076427  T      -0.00086288      -0.00020620       0.00649657
Ru       5.43941669       3.14302403      19.56436477  T      -0.00156520      -0.00227783       0.00005312
Ru       6.79912395       0.78172070      19.56108573  T       0.00015391      -0.00615657       0.00274189
Ru       4.07347501       5.50108899      19.55916810  T      -0.00072835      -0.00112440       0.00489689
Ru       9.52488068       5.50114961      19.55910914  T       0.00016459      -0.00068529       0.00563934
Ru       6.79913685       5.49794910      19.56422042  T       0.00063510       0.00069842       0.00100188
Ru       8.15890387       3.14295387      19.56429314  T       0.00153215      -0.00078621       0.00115719
Ru       0.00000000       0.00000000      17.47074105  F       0.03136871       0.03211543      -1.23032061
Ru       1.35980778       2.35525603      17.47074105  F       0.01459177      -0.00149484      -1.13659914
Ru       2.71961556       0.00000000      17.47074105  F       0.00024157       0.02744642      -1.13629729
Ru       4.07942334       2.35525603      17.47074105  F      -0.01348887      -0.00118757      -1.13665377
Ru       5.43923120       0.00000000      17.47074105  F      -0.03077032       0.03243015      -1.23034555
Ru       2.71961560       4.71051213      17.47074105  F       0.00060169      -0.03507162      -1.23385449
Ru       8.15884680       4.71051213      17.47074105  F       0.02316933       0.02246420      -1.13080617
Ru       6.79903898       2.35525603      17.47074105  F       0.00027410      -0.01709830      -1.12952213
Ru       5.43923116       4.71051213      17.47074105  F      -0.02236189       0.02244187      -1.13099187
Ru       1.35980778       0.78508534      15.28689842  F      -0.02959972      -0.01717417       1.16098301
Ru       4.07942334       0.78508534      15.28689842  F       0.02954903      -0.01720305       1.16089824
Ru       2.71961556       3.14034137      15.28689842  F      -0.00003767       0.03373482       1.16166740
Ru       5.43923112       3.14034137      15.28689842  F       0.01109224       0.00618989       1.15633062
Ru       6.79903898       0.78508534      15.28689842  F       0.00001812      -0.00854873       1.17223905
Ru       4.07942338       5.49559747      15.28689842  F      -0.00684082       0.00489381       1.17098115
Ru       9.51865458       5.49559747      15.28689842  F       0.00682483       0.00487747       1.17091350
Ru       6.79903894       5.49559747      15.28689842  F      -0.00000749      -0.01233218       1.15625305
Ru       8.15884676       3.14034137      15.28689842  F      -0.01110071       0.00615526       1.15632483
H        6.79936195       3.94476495       0.85606784  T      -0.00030658      -0.03077596      -0.00683165
37
Lattice="8.15884676 0.0 0.0 4.07942338 7.06576816 0.0 0.0 0.0 21.83842631" Properties=species:S:1:pos:R:3:move_mask:L:1:forces:R:3 energy=-342.57151366000005 stress="0.05212233891435898 -1.2166573739084236e-06 7.467503797444004e-06 -1.2166573739084236e-06 0.05213007967766746 0.00022698860118081684 7.467503797444004e-06 0.00022698860118081684 0.018461541053589194" free_energy=-342.57133633 pbc="T T T"
Ru       0.00675198       0.00693639      21.60384995  T      -0.00185801      -0.00625609       0.00416000
Ru       1.37051667       2.35200027      21.59975786  T      -0.00126533      -0.00072771       0.00024017
Ru       2.71982598       0.01594744      21.59989872  T      -0.00030626      -0.00578434      -0.00102813
Ru       4.06909420       2.35203369      21.59975328  T       0.00093827      -0.00125883       0.00108337
Ru       5.43279901       0.00702888      21.60390760  T       0.00111869      -0.00659047       0.00216093
Ru       2.71979053       4.70577340      21.60393512  T       0.00013400       0.00015243       0.00396218
Ru       8.16652627       4.71848945      21.62121128  T      -0.00042410      -0.00244344      -0.00755577
Ru       6.79914929       2.35233108      21.62159585  T       0.00071525      -0.00830938      -0.00953383
Ru       5.43199439       4.71851757      21.62122634  T      -0.00174218      -0.00273231      -0.00747067
Ru       1.35722689       0.78565428      19.56091627  T       0.00158029      -0.00122775       0.00335081
Ru       4.08213248       0.78571321      19.56089399  T      -0.00025085      -0.00182455       0.00365046
Ru       2.71973888       3.14473593      19.56096038  T      -0.00127501      -0.00032609       0.00407818
Ru       5.43936113       3.14297853      19.56423942  T      -0.00079309      -0.00207385       0.00077997
Ru       6.79911922       0.78158263      19.56118444  T      -0.00047687      -0.00648938      -0.00035800
Ru       4.07348456       5.50103133      19.55929061  T      -0.00111497       0.00000248       0.00365521
Ru       9.52486738       5.50110312      19.55922816  T       0.00070593      -0.00061579       0.00456038
Ru       6.79913937       5.49798203      19.56412149  T       0.00061357      -0.00035353       0.00160976
Ru       8.15895246       3.14290900      19.56417434  T       0.00098151      -0.00126291       0.00181809
Ru       0.00000000       0.00000000      17.47074105  F       0.03146049       0.03166325      -1.22884659
Ru       1.35980778       2.35525603      17.47074105  F       0.01513250      -0.00214360      -1.13552511
Ru       2.71961556       0.00000000      17.47074105  F       0.00020812       0.02787388      -1.13519597
Ru       4.07942334       2.35525603      17.47074105  F      -0.01415663      -0.00182375      -1.13554696
Ru       5.43923120       0.00000000      17.47074105  F      -0.03093283       0.03201167      -1.22889111
Ru       2.71961560       4.71051213      17.47074105  F       0.00056554      -0.03552742      -1.23218877
Ru       8.15884680       4.71051213      17.47074105  F       0.02340920       0.02234484      -1.12999843
Ru       6.79903898       2.35525603      17.47074105  F       0.00025420      -0.01798956      -1.12852333
Ru       5.43923116       4.71051213      17.47074105  F      -0.02264261       0.02233151      -1.13019698
Ru       1.35980778       0.78508534      15.28689842  F      -0.02967368      -0.01747024       1.16259810
Ru       4.07942334       0.78508534      15.28689842  F       0.02957142      -0.01748781       1.16250590
Ru       2.71961556       3.14034137      15.28689842  F      -0.00005056       0.03372398       1.16323994
Ru       5.43923112       3.14034137      15.28689842  F       0.01097779       0.00591746       1.15841391
Ru       6.79903898       0.78508534      15.28689842  F       0.00000317      -0.00890627       1.17329103
Ru       4.07942338       5.49559747      15.28689842  F      -0.00708707       0.00478964       1.17174827
Ru       9.51865458       5.49559747      15.28689842  F       0.00700309       0.00475230       1.17165157
Ru       6.79903894       5.49559747      15.28689842  F      -0.00001109      -0.01234306       1.15820837
Ru       8.15884676       3.14034137      15.28689842  F      -0.01104381       0.00591134       1.15837954
H        6.79935485       3.94384555       0.85574747  T      -0.00026811      -0.02950663      -0.00428648
