4
Lattice="25.0 0.0 0.0 0.0 25.0 0.0 0.0 0.0 25.0" Properties=species:S:1:pos:R:3:forces:R:3 energy=-19.5137841 stress="4.419605746377897e-05 -0.0 -0.0 -0.0 5.121551452862144e-05 5.98960181756261e-07 -0.0 5.98960181756261e-07 4.4270518667650754e-05" free_energy=-19.51240758 pbc="T T T"
N       12.41137125      11.48501400      12.62091575       0.00000000      -0.00771823      -0.00061794
H       12.41137125      11.17642600      11.64483400       0.00000000       0.00421128      -0.01766227
H       13.23017350      11.05287975      13.05767075       0.01562034       0.00175347       0.00914010
H       11.59256925      11.05287975      13.05767075      -0.01562034       0.00175347       0.00914010
