40
Lattice="8.15884676 0.0 0.0 4.07942338 7.06576816 0.0 0.0 0.0 21.83842631" Properties=species:S:1:pos:R:3:move_mask:L:1:forces:R:3 energy=-368.67836238 stress="0.03478951562916228 3.605844652205276e-07 0.00010911964244784965 3.605844652205276e-07 0.03480501601761982 0.00016738114669660772 0.00010911964244784965 0.00016738114669660772 0.009114183992217195" free_energy=-368.68592343 pbc="T T T"
Ru       0.00093904       0.00143230      21.63609853  T      -0.00006638      -0.00001048      -0.01362493
Ru       9.51246410       2.35720703      21.63278324  T      -0.01488916       0.00377180       0.00711372
Ru       6.79717893       7.06202380      21.63391119  T      -0.00423003      -0.01781022       0.00586977
Ru       4.08300915       2.36079842      21.69650078  T      -0.00244221      -0.00375509      -0.01948888
Ru       9.52319535       7.06090868      21.63255961  T       0.00269654      -0.01557397       0.00680013
Ru      10.87449414       4.72008653      21.63071711  T      -0.01099649       0.00707542       0.00618020
Ru       8.15998361       4.71229504      21.64183046  T       0.00094862       0.00129953      -0.00912917
Ru       6.80974906       2.35737117      21.63052100  T       0.01191510       0.00434396       0.00607226
Ru       5.44616390       4.72112972      21.62940221  T       0.01047449       0.00703447       0.00752707
Ru       1.36035165       0.78572098      19.56186973  T       0.00019158       0.00109735       0.06562197
Ru       4.07985715       0.78961789      19.57918651  T      -0.00077217       0.02301213       0.04416234
Ru       2.72294037       3.13943540      19.57869449  T       0.01836026      -0.00913563       0.04120477
Ru       5.43737833       3.13968539      19.57808717  T      -0.01421139      -0.00797600       0.03878260
Ru       6.79984348       0.78537992      19.56127507  T       0.00198416       0.00265591       0.06709948
Ru       4.07971873       5.49728082      19.56080686  T       0.00176018       0.00106560       0.06404901
Ru       9.51669217       5.49563118      19.55522714  T      -0.00311513      -0.00307098       0.06637644
Ru       6.80247088       5.49634206      19.55518630  T       0.00291419      -0.00507148       0.06609037
Ru       8.16003330       3.14371443      19.55515049  T       0.00008483       0.00350741       0.06622382
Ru       0.00000000       0.00000000      17.47074105  F       0.00301859       0.00496179      -0.69858811
Ru       1.35980778       2.35525603      17.47074105  F       0.04044529       0.03560667      -0.66045708
Ru       2.71961556       0.00000000      17.47074105  F       0.05045340       0.02193495      -0.66102270
Ru       4.07942334       2.35525603      17.47074105  F       0.00135062       0.00254121      -0.62312139
Ru       5.43923120       0.00000000      17.47074105  F      -0.04708060       0.02079958      -0.66197677
Ru       2.71961560       4.71051213      17.47074105  F      -0.00914701      -0.04582904      -0.66243688
Ru       8.15884680       4.71051213      17.47074105  F       0.00179714       0.00322708      -0.77337917
Ru       6.79903898       2.35525603      17.47074105  F      -0.03354389       0.03608505      -0.66117994
Ru       5.43923116       4.71051213      17.47074105  F       0.01351825      -0.04360513      -0.66166463
Ru       1.35980778       0.78508534      15.28689842  F      -0.02755123      -0.01550918       0.59302030
Ru       4.07942334       0.78508534      15.28689842  F      -0.00086416      -0.00150341       0.61519763
Ru       2.71961556       3.14034137      15.28689842  F      -0.00242343      -0.00007961       0.61463419
Ru       5.43923112       3.14034137      15.28689842  F       0.00201580       0.00069652       0.61400396
Ru       6.79903898       0.78508534      15.28689842  F       0.02728816      -0.01531676       0.59344547
Ru       4.07942338       5.49559747      15.28689842  F       0.00002158       0.03153130       0.59387463
Ru       9.51865458       5.49559747      15.28689842  F       0.01819025       0.01098069       0.61516461
Ru       6.79903894       5.49559747      15.28689842  F      -0.01801652       0.01134341       0.61410073
Ru       8.15884676       3.14034137      15.28689842  F       0.00018723      -0.02081812       0.61324064
N        4.11013691       2.40221103       2.06790636  T       0.01711489       0.02493068       0.30689929
H        4.12896892       1.44658284       2.44823391  T      -0.00939738       0.13534945      -0.07216702
H        4.94510264       2.90409558       2.40270341  T      -0.15784466      -0.10047760      -0.07900422
H        3.27518827       2.88402434       2.42868808  T       0.12986071      -0.08930925      -0.07551450
40
Lattice="8.15884676 0.0 0.0 4.07942338 7.06576816 0.0 0.0 0.0 21.83842631" Properties=species:S:1:pos:R:3:move_mask:L:1:forces:R:3 energy=-368.68016080999996 stress="0.034813173220658696 -2.6562739368116488e-06 0.0001037695082062703 -2.6562739368116488e-06 0.0348342337638984 0.00016317042491199486 0.0001037695082062703 0.00016317042491199486 0.009226171364689534" free_energy=-368.68771644 pbc="T T T"
Ru       0.00093839       0.00143216      21.63596706  T       0.00051619       0.00028273      -0.00690256
Ru       9.51232046       2.35724342      21.63285203  T      -0.01367485       0.00328677       0.01129038
Ru       6.79713805       7.06185196      21.63396797  T      -0.00543202      -0.01485895       0.01034032
Ru       4.08298561       2.36076217      21.69631275  T      -0.00168607      -0.00349666       0.00052216
Ru       9.52322137       7.06075846      21.63262513  T       0.00231243      -0.01302629       0.01014300
Ru      10.87438800       4.72015478      21.63077673  T      -0.01002383       0.00522898       0.00938361
Ru       8.15999279       4.71230754      21.64174224  T       0.00023535       0.00024320      -0.00240652
Ru       6.80986397       2.35741307      21.63057952  T       0.01131647       0.00451279       0.01079078
Ru       5.44626494       4.72119762      21.62947472  T       0.01014193       0.00597976       0.01170159
Ru       1.36035352       0.78573158      19.56250305  T       0.00108128       0.00197086       0.05742162
Ru       4.07984964       0.78983990      19.57961258  T      -0.00106806       0.01948968       0.04211461
Ru       2.72311750       3.13934722      19.57909217  T       0.01562863      -0.00881571       0.03932362
Ru       5.43724114       3.13960844      19.57846148  T      -0.01138954      -0.00598473       0.03702808
Ru       6.79986262       0.78540556      19.56192258  T       0.00069262       0.00208496       0.05761531
Ru       4.07973570       5.49729114      19.56142488  T       0.00200675       0.00145410       0.05661661
Ru       9.51666207       5.49560150      19.55586744  T      -0.00473279      -0.00320852       0.05521160
Ru       6.80249902       5.49629317      19.55582398  T       0.00307438      -0.00380037       0.05671927
Ru       8.16003408       3.14374827      19.55578948  T       0.00086811       0.00354534       0.05740600
Ru       0.00000000       0.00000000      17.47074105  F       0.00363808       0.00529397      -0.69824500
Ru       1.35980778       2.35525603      17.47074105  F       0.03887680       0.03482426      -0.66030422
Ru       2.71961556       0.00000000      17.47074105  F       0.04870896       0.02103634      -0.66061325
Ru       4.07942334       2.35525603      17.47074105  F       0.00186018       0.00317758      -0.62441897
Ru       5.43923120       0.00000000      17.47074105  F      -0.04584995       0.02086170      -0.66150073
Ru       2.71961560       4.71051213      17.47074105  F      -0.00843946      -0.04538655      -0.66229091
Ru       8.15884680       4.71051213      17.47074105  F       0.00082271       0.00201847      -0.77340188
Ru       6.79903898       2.35525603      17.47074105  F      -0.03231090       0.03620547      -0.66133127
Ru       5.43923116       4.71051213      17.47074105  F       0.01393901      -0.04308210      -0.66187303
Ru       1.35980778       0.78508534      15.28689842  F      -0.02812539      -0.01556761       0.59509261
Ru       4.07942334       0.78508534      15.28689842  F      -0.00119347      -0.00192669       0.61682625
Ru       2.71961556       3.14034137      15.28689842  F      -0.00317769      -0.00013299       0.61616065
Ru       5.43923112       3.14034137      15.28689842  F       0.00322503       0.00128799       0.61526522
Ru       6.79903898       0.78508534      15.28689842  F       0.02827299      -0.01468106       0.59522468
Ru       4.07942338       5.49559747      15.28689842  F       0.00082706       0.03168390       0.59549140
Ru       9.51865458       5.49559747      15.28689842  F       0.01780228       0.01024150       0.61663253
Ru       6.79903894       5.49559747      15.28689842  F      -0.01835420       0.01056085       0.61556453
Ru       8.15884676       3.14034137      15.28689842  F      -0.00020436      -0.02107962       0.61475502
N        4.11030204       2.40245155       2.07086743  T      -0.00011820      -0.00070253       0.17722212
H        4.12887827       1.44788874       2.44753770  T      -0.00687329       0.05886770      -0.03628558
H        4.94357971       2.90312615       2.40194125  T      -0.06668740      -0.04498743      -0.03594080
H        3.27644123       2.88316260       2.42795955  T       0.05349424      -0.04340108      -0.03634885
40
Lattice="8.15884676 0.0 0.0 4.07942338 7.06576816 0.0 0.0 0.0 21.83842631" Properties=species:S:1:pos:R:3:move_mask:L:1:forces:R:3 energy=-368.68080729 stress="0.034701823337203945 -4.696460990825613e-06 0.00010638081206982995 -4.696460990825613e-06 0.034736693494011074 0.0001647728262744102 0.00010638081206982995 0.0001647728262744102 0.009273922148845776" free_energy=-368.68836563 pbc="T T T"
Ru       0.00094843       0.00143767      21.63583254  T      -0.00084199      -0.00031218       0.00205976
Ru       9.51205387       2.35730750      21.63307194  T      -0.00965882       0.00415358       0.01473959
Ru       6.79703215       7.06156226      21.63416954  T      -0.00265882      -0.01239847       0.01329694
Ru       4.08295269       2.36069399      21.69632301  T      -0.00115280      -0.00286399       0.02092836
Ru       9.52326641       7.06050452      21.63282277  T       0.00049997      -0.01103312       0.01535684
Ru      10.87419263       4.72025674      21.63095973  T      -0.00797927       0.00302088       0.01521340
Ru       8.15999732       4.71231228      21.64169550  T       0.00060828       0.00073103       0.00598507
Ru       6.81008463       2.35750104      21.63078983  T       0.00712557       0.00397041       0.01551357
Ru       5.44646271       4.72131421      21.62970293  T       0.00728963       0.00304722       0.01586245
Ru       1.36037453       0.78576995      19.56362248  T       0.00279536       0.00310030       0.03957378
Ru       4.07982887       0.79021983      19.58043349  T       0.00035494       0.01434112       0.03465654
Ru       2.72342215       3.13917538      19.57985870  T       0.01367656      -0.00673243       0.03369494
Ru       5.43701917       3.13949179      19.57918324  T      -0.01019382      -0.00508221       0.03183443
Ru       6.79987612       0.78544619      19.56304573  T       0.00044073       0.00310562       0.03732090
Ru       4.07977482       5.49731947      19.56252860  T       0.00099585      -0.00048321       0.04470883
Ru       9.51656983       5.49553897      19.55694386  T      -0.00117209      -0.00156055       0.04152500
Ru       6.80255895       5.49621905      19.55692966  T       0.00185605      -0.00237338       0.04066170
Ru       8.16005105       3.14381738      19.55690848  T       0.00019940       0.00292304       0.04061916
Ru       0.00000000       0.00000000      17.47074105  F       0.00327335       0.00531996      -0.69198158
Ru       1.35980778       2.35525603      17.47074105  F       0.03931200       0.03502536      -0.65483097
Ru       2.71961556       0.00000000      17.47074105  F       0.04947130       0.02128998      -0.65499342
Ru       4.07942334       2.35525603      17.47074105  F       0.00156451       0.00258540      -0.62135966
Ru       5.43923120       0.00000000      17.47074105  F      -0.04653669       0.02071972      -0.65524636
Ru       2.71961560       4.71051213      17.47074105  F      -0.00895445      -0.04522787      -0.65569672
Ru       8.15884680       4.71051213      17.47074105  F       0.00127334       0.00258061      -0.76634983
Ru       6.79903898       2.35525603      17.47074105  F      -0.03245256       0.03578313      -0.65504488
Ru       5.43923116       4.71051213      17.47074105  F       0.01373485      -0.04278603      -0.65525129
Ru       1.35980778       0.78508534      15.28689842  F      -0.02709792      -0.01497629       0.59648224
Ru       4.07942334       0.78508534      15.28689842  F      -0.00157131      -0.00123312       0.61750465
Ru       2.71961556       3.14034137      15.28689842  F      -0.00276292      -0.00109865       0.61709678
Ru       5.43923112       3.14034137      15.28689842  F       0.00208673       0.00033941       0.61675794
Ru       6.79903898       0.78508534      15.28689842  F       0.02740496      -0.01461178       0.59712013
Ru       4.07942338       5.49559747      15.28689842  F       0.00047666       0.03145396       0.59761218
Ru       9.51865458       5.49559747      15.28689842  F       0.01788540       0.01083577       0.61825343
Ru       6.79903894       5.49559747      15.28689842  F      -0.01829540       0.01165120       0.61735011
Ru       8.15884676       3.14034137      15.28689842  F       0.00030441      -0.02160801       0.61642696
N        4.11029976       2.40243784       2.07432227  T      -0.00747822      -0.01096361       0.03421384
H        4.12874426       1.44903629       2.44683035  T      -0.00484595      -0.03020044       0.00661028
H        4.94227968       2.90224915       2.40124045  T       0.01771787       0.00606635       0.00580788
H        3.27748409       2.88231655       2.42725089  T      -0.02669473       0.00350128       0.00596703
40
Lattice="8.15884676 0.0 0.0 4.07942338 7.06576816 0.0 0.0 0.0 21.83842631" Properties=species:S:1:pos:R:3:move_mask:L:1:forces:R:3 energy=-368.68126617999997 stress="0.03474053144166314 -3.9314080097204726e-06 0.00010899878810664517 -3.9314080097204726e-06 0.034772501088039844 0.00016718645530244402 0.00010899878810664517 0.00016718645530244402 0.009360882230644019" free_energy=-368.68883384 pbc="T T T"
Ru       0.00094027       0.00143470      21.63585154  T      -0.00072998      -0.00008744       0.00522694
Ru       9.51195613       2.35734905      21.63321935  T      -0.00842665       0.00317057       0.01702197
Ru       6.79700490       7.06143734      21.63430232  T      -0.00268766      -0.01079231       0.01565279
Ru       4.08294099       2.36066509      21.69652895  T      -0.00159283      -0.00260965       0.02172010
Ru       9.52327184       7.06039337      21.63297607  T       0.00127675      -0.00950589       0.01666033
Ru      10.87411214       4.72028748      21.63111129  T      -0.00669022       0.00260949       0.01646333
Ru       8.16000340       4.71231955      21.64175381  T       0.00068380       0.00076064       0.00738890
Ru       6.81015688       2.35754096      21.63094466  T       0.00627658       0.00263124       0.01680224
Ru       5.44653643       4.72134537      21.62986126  T       0.00571039       0.00332411       0.01710337
Ru       1.36040236       0.78580089      19.56402300  T       0.00249823       0.00263058       0.03574301
Ru       4.07983214       0.79036481      19.58078290  T       0.00077413       0.01107110       0.03211440
Ru       2.72355979       3.13910741      19.58019807  T       0.01128453      -0.00523185       0.03165611
Ru       5.43691658       3.13944056      19.57950382  T      -0.00831748      -0.00411043       0.03002267
Ru       6.79988065       0.78547721      19.56342419  T       0.00027819       0.00240273       0.03364528
Ru       4.07978502       5.49731495      19.56297956  T       0.00063569       0.00010984       0.03527745
Ru       9.51655743       5.49552300      19.55736337  T      -0.00080329      -0.00118437       0.03660018
Ru       6.80257776       5.49619495      19.55734088  T       0.00186936      -0.00192078       0.03598427
Ru       8.16005313       3.14384684      19.55731948  T       0.00036227       0.00281877       0.03603824
Ru       0.00000000       0.00000000      17.47074105  F       0.00316935       0.00507961      -0.68913423
Ru       1.35980778       2.35525603      17.47074105  F       0.03884191       0.03492594      -0.65223899
Ru       2.71961556       0.00000000      17.47074105  F       0.04913858       0.02072574      -0.65241041
Ru       4.07942334       2.35525603      17.47074105  F       0.00144028       0.00243856      -0.62029431
Ru       5.43923120       0.00000000      17.47074105  F      -0.04607231       0.01984696      -0.65312198
Ru       2.71961560       4.71051213      17.47074105  F      -0.00931072      -0.04430675      -0.65382810
Ru       8.15884680       4.71051213      17.47074105  F       0.00161981       0.00291735      -0.76422028
Ru       6.79903898       2.35525603      17.47074105  F      -0.03180583       0.03540013      -0.65304988
Ru       5.43923116       4.71051213      17.47074105  F       0.01370695      -0.04184291      -0.65349585
Ru       1.35980778       0.78508534      15.28689842  F      -0.02722800      -0.01527543       0.59792001
Ru       4.07942334       0.78508534      15.28689842  F      -0.00109691      -0.00160529       0.61839030
Ru       2.71961556       3.14034137      15.28689842  F      -0.00264795      -0.00032359       0.61773448
Ru       5.43923112       3.14034137      15.28689842  F       0.00210216       0.00063813       0.61699408
Ru       6.79903898       0.78508534      15.28689842  F       0.02700758      -0.01500474       0.59798479
Ru       4.07942338       5.49559747      15.28689842  F       0.00013296       0.03107822       0.59827575
Ru       9.51865458       5.49559747      15.28689842  F       0.01798538       0.01078829       0.61878451
Ru       6.79903894       5.49559747      15.28689842  F      -0.01810761       0.01124554       0.61795633
Ru       8.15884676       3.14034137      15.28689842  F       0.00014071      -0.02102569       0.61721048
N        4.11022613       2.40232980       2.07469374  T      -0.00534749      -0.00800277       0.02972986
H        4.12869523       1.44875069       2.44688822  T      -0.00499236      -0.02767144       0.00766201
H        4.94244090       2.90230002       2.40129068  T       0.01207085       0.00260889       0.00557106
H        3.27723186       2.88234248       2.42730265  T      -0.02314915       0.00127890       0.00645880
40
Lattice="8.15884676 0.0 0.0 4.07942338 7.06576816 0.0 0.0 0.0 21.83842631" Properties=species:S:1:pos:R:3:move_mask:L:1:forces:R:3 energy=-368.68197879999997 stress="0.034812391090908626 -3.960580823374851e-06 0.00011184568397367042 -3.960580823374851e-06 0.03483243297616842 0.00017046275451431178 0.00011184568397367042 0.00017046275451431178 0.009478468817262622" free_energy=-368.68964256 pbc="T T T"
Ru       0.00090143       0.00143004      21.63612321  T       0.00014198      -0.00017095       0.01525259
Ru       9.51149091       2.35752287      21.63414072  T      -0.00183746       0.00132242       0.02043669
Ru       6.79685600       7.06084381      21.63514943  T      -0.00148085      -0.00463494       0.01992159
Ru       4.08285442       2.36052179      21.69769447  T      -0.00036505      -0.00137933       0.02804341
Ru       9.52334172       7.05987058      21.63387778  T       0.00068450      -0.00240813       0.02003094
Ru      10.87374328       4.72043247      21.63200186  T      -0.00135294       0.00045061       0.02145597
Ru       8.16004020       4.71236054      21.64214712  T       0.00083763       0.00043519       0.01783851
Ru       6.81050440       2.35768729      21.63185467  T       0.00122552       0.00081290       0.02112737
Ru       5.44685311       4.72152872      21.63078830  T      -0.00061751      -0.00028552       0.02151116
Ru       1.36053755       0.78594419      19.56599479  T       0.00231047       0.00114470       0.00878790
Ru       4.07987240       0.79097876      19.58254526  T       0.00017045       0.00043880       0.01790029
Ru       2.72418113       3.13881764      19.58193291  T       0.00198580      -0.00177363       0.01943741
Ru       5.43645866       3.13921396      19.58114891  T      -0.00314895      -0.00067558       0.02147152
Ru       6.79989635       0.78560856      19.56528330  T      -0.00227657       0.00065000       0.01062951
Ru       4.07982121       5.49732166      19.56493039  T       0.00078530      -0.00077473       0.00777928
Ru       9.51650978       5.49545630      19.55937993  T      -0.00272836      -0.00002809       0.01561972
Ru       6.80268076       5.49608819      19.55932556  T       0.00046840       0.00103690       0.01689279
Ru       8.16007320       3.14400130      19.55930765  T      -0.00103474      -0.00015302       0.01622617
Ru       0.00000000       0.00000000      17.47074105  F       0.00368044       0.00510798      -0.67653228
Ru       1.35980778       2.35525603      17.47074105  F       0.03822355       0.03543139      -0.64082285
Ru       2.71961556       0.00000000      17.47074105  F       0.04923366       0.01945679      -0.64083762
Ru       4.07942334       2.35525603      17.47074105  F       0.00179735       0.00225956      -0.61364668
Ru       5.43923120       0.00000000      17.47074105  F      -0.04524198       0.01833259      -0.64190734
Ru       2.71961560       4.71051213      17.47074105  F      -0.00979600      -0.04294500      -0.64291543
Ru       8.15884680       4.71051213      17.47074105  F       0.00243488       0.00332658      -0.75308519
Ru       6.79903898       2.35525603      17.47074105  F      -0.03008554       0.03556422      -0.64238351
Ru       5.43923116       4.71051213      17.47074105  F       0.01451413      -0.04028454      -0.64298366
Ru       1.35980778       0.78508534      15.28689842  F      -0.02644456      -0.01516066       0.60172782
Ru       4.07942334       0.78508534      15.28689842  F      -0.00024052      -0.00177059       0.62080931
Ru       2.71961556       3.14034137      15.28689842  F      -0.00204341       0.00047242       0.62004123
Ru       5.43923112       3.14034137      15.28689842  F       0.00235278       0.00095758       0.61905279
Ru       6.79903898       0.78508534      15.28689842  F       0.02642924      -0.01501528       0.60173289
Ru       4.07942338       5.49559747      15.28689842  F       0.00013389       0.03020802       0.60201173
Ru       9.51865458       5.49559747      15.28689842  F       0.01817960       0.01068090       0.62223540
Ru       6.79903894       5.49559747      15.28689842  F      -0.01726156       0.01077245       0.62124703
Ru       8.15884676       3.14034137      15.28689842  F       0.00036224      -0.02005436       0.62049305
N        4.10993722       2.40189724       2.07644802  T      -0.00350477      -0.00590608       0.03002861
H        4.12842146       1.44731514       2.44726668  T      -0.00492527      -0.00459497       0.00594616
H        4.94303511       2.90240361       2.40155842  T      -0.00981977      -0.01048796       0.00441185
H        3.27603345       2.88237505       2.42761690  T      -0.00174598      -0.01035863       0.00501387
40
Lattice="8.15884676 0.0 0.0 4.07942338 7.06576816 0.0 0.0 0.0 21.83842631" Properties=species:S:1:pos:R:3:move_mask:L:1:forces:R:3 energy=-368.68229129 stress="0.034859891471960246 -3.8801901858334745e-06 0.00010667581699866482 -3.8801901858334745e-06 0.03488025694826067 0.00016541147621269796 0.00010667581699866482 0.00016541147621269796 0.009585625530056418" free_energy=-368.6899819 pbc="T T T"
Ru       0.00089747       0.00142743      21.63633592  T      -0.00041810       0.00007379       0.01464572
Ru       9.51140177       2.35756336      21.63450738  T      -0.00085685       0.00154250       0.02079768
Ru       6.79681733       7.06070419      21.63549950  T      -0.00124137      -0.00304413       0.01994095
Ru       4.08283765       2.36048512      21.69818299  T       0.00001202      -0.00075270       0.02907521
Ru       9.52335967       7.05976657      21.63423702  T       0.00053894      -0.00100184       0.02046530
Ru      10.87367377       4.72045889      21.63237573  T      -0.00096681      -0.00007353       0.02215875
Ru       8.16005517       4.71237149      21.64240700  T       0.00025331      -0.00012401       0.02059491
Ru       6.81056931       2.35771803      21.63222767  T       0.00031012       0.00085675       0.02179339
Ru       5.44689256       4.72155239      21.63116807  T      -0.00132064      -0.00086730       0.02267171
Ru       1.36058356       0.78597810      19.56638373  T       0.00256552       0.00186871       0.00479019
Ru       4.07988015       0.79107386      19.58300693  T       0.00020415      -0.00105404       0.01575329
Ru       2.72429474       3.13875497      19.58240790  T      -0.00047062      -0.00005539       0.01632021
Ru       5.43635582       3.13917305      19.58163373  T      -0.00108401       0.00030447       0.01794723
Ru       6.79987269       0.78563513      19.56567682  T      -0.00206717       0.00062418       0.00654656
Ru       4.07983544       5.49731382      19.56530492  T       0.00070602      -0.00113405       0.00404292
Ru       9.51647172       5.49544620      19.55985317  T      -0.00221237       0.00062510       0.01164657
Ru       6.80270120       5.49608430      19.55980862  T      -0.00114122      -0.00045724       0.01059031
Ru       8.16006439       3.14402221      19.55978351  T       0.00067166      -0.00203045       0.01084545
Ru       0.00000000       0.00000000      17.47074105  F       0.00371926       0.00513818      -0.67483064
Ru       1.35980778       2.35525603      17.47074105  F       0.03818521       0.03555137      -0.63879928
Ru       2.71961556       0.00000000      17.47074105  F       0.04932323       0.01923552      -0.63883922
Ru       4.07942334       2.35525603      17.47074105  F       0.00183099       0.00217600      -0.61174781
Ru       5.43923120       0.00000000      17.47074105  F      -0.04527162       0.01808189      -0.63956441
Ru       2.71961560       4.71051213      17.47074105  F      -0.00999352      -0.04301344      -0.64034172
Ru       8.15884680       4.71051213      17.47074105  F       0.00243590       0.00324349      -0.75012852
Ru       6.79903898       2.35525603      17.47074105  F      -0.03005342       0.03563487      -0.64009561
Ru       5.43923116       4.71051213      17.47074105  F       0.01470117      -0.04032844      -0.64055559
Ru       1.35980778       0.78508534      15.28689842  F      -0.02652909      -0.01523231       0.60227131
Ru       4.07942334       0.78508534      15.28689842  F      -0.00038227      -0.00161724       0.62162166
Ru       2.71961556       3.14034137      15.28689842  F      -0.00195463       0.00009554       0.62088970
Ru       5.43923112       3.14034137      15.28689842  F       0.00221363       0.00071587       0.61998507
Ru       6.79903898       0.78508534      15.28689842  F       0.02671526      -0.01509942       0.60246687
Ru       4.07942338       5.49559747      15.28689842  F       0.00022370       0.03048652       0.60286188
Ru       9.51865458       5.49559747      15.28689842  F       0.01846910       0.01083738       0.62339427
Ru       6.79903894       5.49559747      15.28689842  F      -0.01759250       0.01106882       0.62228961
Ru       8.15884676       3.14034137      15.28689842  F       0.00046279      -0.02066813       0.62150420
N        4.10985523       2.40176694       2.07705011  T      -0.00479735      -0.00770786       0.02310410
H        4.12832543       1.44705526       2.44738832  T      -0.00480860      -0.00541292       0.00836301
H        4.94300843       2.90229833       2.40164643  T      -0.00733472      -0.00899737       0.00772331
H        3.27584025       2.88226087       2.42771867  T      -0.00304511      -0.00948913       0.00780148
