40
Lattice="8.15884676 0.0 0.0 4.07942338 7.06576816 0.0 0.0 0.0 21.83842631" Properties=species:S:1:pos:R:3:move_mask:L:1:forces:R:3 energy=-364.49096689 stress="0.04236839802100301 -1.6809388958972884e-05 0.00011453452610510094 -1.6809388958972884e-05 0.04239681445737396 0.00018649080015336098 0.00011453452610510094 0.00018649080015336098 0.012452790523205718" free_energy=-364.48357144 pbc="T T T"
Ru       0.00070582       0.00102228      21.62277556  T      -0.00155281       0.00045464       0.05898507
Ru       9.50392778       2.35758978      21.62346588  T       0.01755992      -0.00007852       0.06153734
Ru       6.79330274       7.05414646      21.62440536  T       0.00820474       0.01435986       0.06034727
Ru       4.08303901       2.36102141      21.67916172  T      -0.00047922      -0.00166286       0.05921222
Ru       9.52691215       7.05263177      21.62317521  T      -0.00876556       0.01694302       0.06190021
Ru      10.86921096       4.72731764      21.62161092  T       0.01031501      -0.01469264       0.06411919
Ru       8.16009408       4.71238491      21.62508716  T      -0.00209422      -0.00181572       0.06232292
Ru       6.81825943       2.35773060      21.62144102  T      -0.01532523       0.00113732       0.06397003
Ru       5.45099418       4.72836111      21.62048406  T      -0.00742821      -0.01400812       0.06361431
Ru       1.36089282       0.78605618      19.56976367  T       0.00079461       0.00039830      -0.04894840
Ru       4.07987950       0.78551734      19.58532551  T       0.00082368       0.01341837      -0.05682804
Ru       2.71917723       3.14165596      19.58475728  T       0.00980698      -0.00842800      -0.05540609
Ru       5.44135434       3.14202804      19.58404862  T      -0.01034678      -0.00599987      -0.05244858
Ru       6.79931834       0.78574486      19.56907270  T      -0.00034277       0.00076128      -0.04966891
Ru       4.07972917       5.49661749      19.56858024  T       0.00076516      -0.00095166      -0.05121212
Ru       9.51976447       5.49733374      19.56378584  T      -0.01233626      -0.00428393      -0.03549548
Ru       6.79941572       5.49804930      19.56383322  T       0.01471297      -0.00355431      -0.03400480
Ru       8.16003966       3.14025715      19.56382078  T       0.00296921       0.01588991      -0.03118396
Ru       0.00000000       0.00000000      17.47074105  F       0.00293676       0.00437752      -0.86306140
Ru       1.35980778       2.35525603      17.47074105  F       0.05737173       0.01018920      -0.81956705
Ru       2.71961556       0.00000000      17.47074105  F       0.03839561       0.04882524      -0.81987517
Ru       4.07942334       2.35525603      17.47074105  F       0.00159270       0.00274460      -0.74271563
Ru       5.43923120       0.00000000      17.47074105  F      -0.03613822       0.04683300      -0.82100254
Ru       2.71961560       4.71051213      17.47074105  F       0.01897081      -0.04924283      -0.82187194
Ru       8.15884680       4.71051213      17.47074105  F       0.00144005       0.00256300      -0.90996849
Ru       6.79903898       2.35525603      17.47074105  F      -0.04965296       0.01073705      -0.82050859
Ru       5.43923116       4.71051213      17.47074105  F      -0.01536780      -0.04559717      -0.82115809
Ru       1.35980778       0.78508534      15.28689842  F      -0.00976037      -0.00511318       0.80884520
Ru       4.07942334       0.78508534      15.28689842  F      -0.00054777       0.00608507       0.81566108
Ru       2.71961556       3.14034137      15.28689842  F       0.00501320      -0.00389755       0.81533124
Ru       5.43923112       3.14034137      15.28689842  F      -0.00562724      -0.00361564       0.81488852
Ru       6.79903898       0.78508534      15.28689842  F       0.00931729      -0.00433185       0.80923608
Ru       4.07942338       5.49559747      15.28689842  F       0.00045388       0.00964689       0.80957430
Ru       9.51865458       5.49559747      15.28689842  F       0.02439882       0.01394244       0.80377904
Ru       6.79903894       5.49559747      15.28689842  F      -0.02484882       0.01414235       0.80312070
Ru       8.15884676       3.14034137      15.28689842  F      -0.00016630      -0.02887966       0.80256006
N        4.11167640       2.40441809       2.06194512  T      -0.02109823      -0.01274527       0.31104302
H        4.13002239       1.44912242       2.44596206  T      -0.00879695       0.16452250      -0.10150993
H        4.94512483       2.90514272       2.40117057  T      -0.14158412      -0.09117982      -0.09215878
H        3.27717720       2.88543799       2.42687462  T       0.14641672      -0.09789298      -0.10145384
40
Lattice="8.15884676 0.0 0.0 4.07942338 7.06576816 0.0 0.0 0.0 21.83842631" Properties=species:S:1:pos:R:3:move_mask:L:1:forces:R:3 energy=-364.49282338 stress="0.042333571230201296 -9.519630858415782e-06 0.0001186469316379629 -9.519630858415782e-06 0.04235695149896423 0.00018831378268979423 0.0001186469316379629 0.00018831378268979423 0.012567284872716574" free_energy=-364.48538586 pbc="T T T"
Ru       0.00069081       0.00102666      21.62334467  T      -0.00022093      -0.00012866       0.05044264
Ru       9.50409720       2.35758901      21.62405966  T       0.01521648      -0.00020534       0.05267438
Ru       6.79338192       7.05428501      21.62498758  T       0.00734496       0.01377544       0.05151286
Ru       4.08303440       2.36100537      21.67973302  T       0.00038989      -0.00182234       0.06190881
Ru       9.52682754       7.05279527      21.62377249  T      -0.00664098       0.01671712       0.05195421
Ru      10.86931050       4.72717590      21.62222960  T       0.00998200      -0.01348537       0.05284095
Ru       8.16007393       4.71236739      21.62568859  T      -0.00176607      -0.00200003       0.05643504
Ru       6.81811155       2.35774156      21.62205817  T      -0.01394065       0.00069329       0.05426773
Ru       5.45092250       4.72822594      21.62109772  T      -0.00691999      -0.01285935       0.05422937
Ru       1.36090049       0.78606000      19.56929152  T      -0.00046699       0.00114864      -0.03821310
Ru       4.07988750       0.78564679      19.58477715  T      -0.00030538       0.01050346      -0.04580925
Ru       2.71927183       3.14157463      19.58422267  T       0.00935071      -0.00793603      -0.04391817
Ru       5.44125447       3.14197010      19.58354240  T      -0.00889198      -0.00506728      -0.04231178
Ru       6.79931508       0.78575221      19.56859335  T       0.00005781       0.00035633      -0.03866155
Ru       4.07973660       5.49660830      19.56808604  T       0.00079167      -0.00044986      -0.03976658
Ru       9.51964547       5.49729241      19.56344341  T      -0.01023908      -0.00285105      -0.02482355
Ru       6.79955760       5.49801496      19.56350521  T       0.01271566      -0.00326135      -0.02219064
Ru       8.16006838       3.14041048      19.56352006  T       0.00245349       0.01396687      -0.02267487
Ru       0.00000000       0.00000000      17.47074105  F       0.00291989       0.00449565      -0.86480425
Ru       1.35980778       2.35525603      17.47074105  F       0.05670740       0.01060308      -0.82109052
Ru       2.71961556       0.00000000      17.47074105  F       0.03832601       0.04840646      -0.82144141
Ru       4.07942334       2.35525603      17.47074105  F       0.00166336       0.00296370      -0.74507725
Ru       5.43923120       0.00000000      17.47074105  F      -0.03625802       0.04663655      -0.82273211
Ru       2.71961560       4.71051213      17.47074105  F       0.01855174      -0.04921560      -0.82344574
Ru       8.15884680       4.71051213      17.47074105  F       0.00117668       0.00231151      -0.91191115
Ru       6.79903898       2.35525603      17.47074105  F      -0.04921227       0.01136165      -0.82173009
Ru       5.43923116       4.71051213      17.47074105  F      -0.01481819      -0.04553490      -0.82241413
Ru       1.35980778       0.78508534      15.28689842  F      -0.00990917      -0.00495229       0.80832918
Ru       4.07942334       0.78508534      15.28689842  F      -0.00069552       0.00619159       0.81488772
Ru       2.71961556       3.14034137      15.28689842  F       0.00481774      -0.00397638       0.81473481
Ru       5.43923112       3.14034137      15.28689842  F      -0.00571212      -0.00368134       0.81467246
Ru       6.79903898       0.78508534      15.28689842  F       0.00936373      -0.00425101       0.80864693
Ru       4.07942338       5.49559747      15.28689842  F       0.00032684       0.00977607       0.80888193
Ru       9.51865458       5.49559747      15.28689842  F       0.02427643       0.01387770       0.80314021
Ru       6.79903894       5.49559747      15.28689842  F      -0.02484438       0.01418999       0.80262640
Ru       8.15884676       3.14034137      15.28689842  F      -0.00012719      -0.02889883       0.80184890
N        4.11147292       2.40429515       2.06494638  T      -0.00615520      -0.00696722       0.17062101
H        4.12993757       1.45070989       2.44498260  T      -0.00772240       0.06063003      -0.05277361
H        4.94375876       2.90426297       2.40028131  T      -0.06588453      -0.04547352      -0.05458276
H        3.27858990       2.88449344       2.42589582  T       0.05429859      -0.04558738      -0.05428302
40
Lattice="8.15884676 0.0 0.0 4.07942338 7.06576816 0.0 0.0 0.0 21.83842631" Properties=species:S:1:pos:R:3:move_mask:L:1:forces:R:3 energy=-364.49357406 stress="0.04230827951175157 -5.655319071798555e-06 0.00012011650120316125 -5.655319071798555e-06 0.042332550799632794 0.00018770821899138275 0.00012011650120316125 0.00018770821899138275 0.012747490535595265" free_energy=-364.48604604 pbc="T T T"
Ru       0.00068649       0.00102411      21.62433352  T      -0.00084013      -0.00017686       0.03655054
Ru       9.50439545       2.35758498      21.62509196  T       0.01161787      -0.00037661       0.03639944
Ru       6.79352588       7.05455500      21.62599717  T       0.00459618       0.00774644       0.03378403
Ru       4.08304203       2.36096969      21.68094636  T      -0.00010454       0.00003130       0.05562677
Ru       9.52669737       7.05312291      21.62479081  T      -0.00471056       0.01433010       0.03656709
Ru      10.86950611       4.72691157      21.62326518  T       0.00846215      -0.00977244       0.03356340
Ru       8.16003930       4.71232817      21.62679471  T      -0.00129358      -0.00100155       0.04731914
Ru       6.81783831       2.35775512      21.62312192  T      -0.01020516       0.00095619       0.03603532
Ru       5.45078686       4.72797390      21.62216059  T      -0.00529348      -0.01057886       0.03821628
Ru       1.36089132       0.78608254      19.56854246  T      -0.00078315      -0.00005446      -0.01996780
Ru       4.07988146       0.78585269      19.58387937  T      -0.00082910       0.00573891      -0.02320150
Ru       2.71945507       3.14141904      19.58336180  T       0.00724021      -0.00401349      -0.02185512
Ru       5.44108016       3.14187083      19.58271320  T      -0.00526516      -0.00210070      -0.02226686
Ru       6.79931618       0.78575921      19.56783555  T       0.00158993       0.00089878      -0.01941783
Ru       4.07975206       5.49659947      19.56730663  T       0.00136378       0.00126748      -0.02134066
Ru       9.51944476       5.49723659      19.56295685  T      -0.00796668      -0.00395674      -0.00557335
Ru       6.79980685       5.49795108      19.56307019  T       0.00919233      -0.00299012      -0.00530443
Ru       8.16011644       3.14068420      19.56307565  T       0.00120754       0.01089635      -0.00755532
Ru       0.00000000       0.00000000      17.47074105  F       0.00259128       0.00420154      -0.86814898
Ru       1.35980778       2.35525603      17.47074105  F       0.05527786       0.01099786      -0.82311112
Ru       2.71961556       0.00000000      17.47074105  F       0.03753168       0.04663595      -0.82355845
Ru       4.07942334       2.35525603      17.47074105  F       0.00230037       0.00374710      -0.74899928
Ru       5.43923120       0.00000000      17.47074105  F      -0.03513040       0.04500800      -0.82527468
Ru       2.71961560       4.71051213      17.47074105  F       0.01766524      -0.04779928      -0.82561371
Ru       8.15884680       4.71051213      17.47074105  F       0.00135224       0.00269444      -0.91484192
Ru       6.79903898       2.35525603      17.47074105  F      -0.04816675       0.01177201      -0.82323750
Ru       5.43923116       4.71051213      17.47074105  F      -0.01382555      -0.04468516      -0.82392963
Ru       1.35980778       0.78508534      15.28689842  F      -0.01131354      -0.00586213       0.80682347
Ru       4.07942334       0.78508534      15.28689842  F      -0.00005982       0.00518424       0.81472619
Ru       2.71961556       3.14034137      15.28689842  F       0.00437757      -0.00268898       0.81376521
Ru       5.43923112       3.14034137      15.28689842  F      -0.00510840      -0.00302234       0.81330923
Ru       6.79903898       0.78508534      15.28689842  F       0.01015891      -0.00532676       0.80713529
Ru       4.07942338       5.49559747      15.28689842  F      -0.00011821       0.01071856       0.80791982
Ru       9.51865458       5.49559747      15.28689842  F       0.02523488       0.01421861       0.80171225
Ru       6.79903894       5.49559747      15.28689842  F      -0.02531280       0.01406880       0.80204035
Ru       8.15884676       3.14034137      15.28689842  F      -0.00027737      -0.02903570       0.80212858
N        4.11135221       2.40415856       2.06829049  T      -0.00408785      -0.00839970       0.02933258
H        4.12978615       1.45189821       2.44394833  T      -0.00594888      -0.03387247      -0.00644456
H        4.94246737       2.90337169       2.39921166  T       0.01338631       0.00233706      -0.01369342
H        3.27965418       2.88359997       2.42483185  T      -0.02850525       0.00226459      -0.00961886
40
Lattice="8.15884676 0.0 0.0 4.07942338 7.06576816 0.0 0.0 0.0 21.83842631" Properties=species:S:1:pos:R:3:move_mask:L:1:forces:R:3 energy=-364.49391939 stress="0.04235383450803129 -7.485073645633364e-06 0.00012544437822319772 -7.485073645633364e-06 0.04237913468996738 0.00018681930326167447 0.00012544437822319772 0.00018681930326167447 0.01283187555797344" free_energy=-364.48634878 pbc="T T T"
Ru       0.00067714       0.00102206      21.62478732  T      -0.00068391       0.00049388       0.02887640
Ru       9.50453876       2.35758067      21.62554686  T       0.01041013       0.00019494       0.03011128
Ru       6.79358410       7.05465484      21.62642236  T       0.00531324       0.00758438       0.02823095
Ru       4.08304138       2.36096786      21.68161964  T      -0.00145452      -0.00131727       0.04554614
Ru       9.52663875       7.05329722      21.62524658  T      -0.00378958       0.01231369       0.03130214
Ru      10.86960920       4.72679025      21.62368972  T       0.00664731      -0.00834708       0.02799142
Ru       8.16002322       4.71231503      21.62737168  T       0.00044385       0.00057844       0.04188500
Ru       6.81771177       2.35776629      21.62357463  T      -0.00844437       0.00001566       0.02825247
Ru       5.45072159       4.72784460      21.62263689  T      -0.00501212      -0.00937450       0.02892931
Ru       1.36088226       0.78608324      19.56828193  T      -0.00044914       0.00009187      -0.01159661
Ru       4.07987224       0.78592702      19.58357494  T      -0.00032873       0.00502189      -0.01443646
Ru       2.71954421       3.14136640      19.58307419  T       0.00557507      -0.00137020      -0.01272687
Ru       5.44101285       3.14184214      19.58242297  T      -0.00478666      -0.00183584      -0.01518717
Ru       6.79933343       0.78576931      19.56758048  T       0.00077851       0.00093319      -0.01188191
Ru       4.07976772       5.49661261      19.56702950  T       0.00113621       0.00211369      -0.01300236
Ru       9.51934678       5.49719052      19.56286753  T      -0.00659129      -0.00336911       0.00132754
Ru       6.79992103       5.49791497      19.56298699  T       0.00764987      -0.00283611       0.00109435
Ru       8.16013239       3.14081824      19.56296733  T       0.00063242       0.00933956       0.00013796
Ru       0.00000000       0.00000000      17.47074105  F       0.00272162       0.00432094      -0.86872506
Ru       1.35980778       2.35525603      17.47074105  F       0.05529249       0.01137009      -0.82348899
Ru       2.71961556       0.00000000      17.47074105  F       0.03804830       0.04621321      -0.82405742
Ru       4.07942334       2.35525603      17.47074105  F       0.00221728       0.00338520      -0.75006825
Ru       5.43923120       0.00000000      17.47074105  F      -0.03572124       0.04445211      -0.82492335
Ru       2.71961560       4.71051213      17.47074105  F       0.01685502      -0.04831231      -0.82538883
Ru       8.15884680       4.71051213      17.47074105  F       0.00147748       0.00265500      -0.91503357
Ru       6.79903898       2.35525603      17.47074105  F      -0.04793153       0.01221024      -0.82431837
Ru       5.43923116       4.71051213      17.47074105  F      -0.01296776      -0.04502860      -0.82521718
Ru       1.35980778       0.78508534      15.28689842  F      -0.01071822      -0.00582154       0.80685558
Ru       4.07942334       0.78508534      15.28689842  F      -0.00024333       0.00618466       0.81423327
Ru       2.71961556       3.14034137      15.28689842  F       0.00542873      -0.00365344       0.81346893
Ru       5.43923112       3.14034137      15.28689842  F      -0.00511067      -0.00316655       0.81176160
Ru       6.79903898       0.78508534      15.28689842  F       0.00979253      -0.00404844       0.80768229
Ru       4.07942338       5.49559747      15.28689842  F       0.00107292       0.00950295       0.80824792
Ru       9.51865458       5.49559747      15.28689842  F       0.02480157       0.01387467       0.80339113
Ru       6.79903894       5.49559747      15.28689842  F      -0.02600103       0.01321328       0.80183584
Ru       8.15884676       3.14034137      15.28689842  F      -0.00128384      -0.02941032       0.80182651
N        4.11130085       2.40405971       2.06880807  T      -0.00580734      -0.00950650       0.01762933
H        4.12971288       1.45160413       2.44381643  T      -0.00578064      -0.03477576      -0.00369927
H        4.94253424       2.90334336       2.39899961  T       0.01566313       0.00357156      -0.01000232
H        3.27941056       2.88357072       2.42466413  T      -0.02885176       0.00253844      -0.00686338
40
Lattice="8.15884676 0.0 0.0 4.07942338 7.06576816 0.0 0.0 0.0 21.83842631" Properties=species:S:1:pos:R:3:move_mask:L:1:forces:R:3 energy=-364.49474806 stress="0.04250224578610953 -4.494005159309338e-06 0.00011622146870862642 -4.494005159309338e-06 0.04252242982798118 0.00017961145872688548 0.00011622146870862642 0.00017961145872688548 0.013102070119783888" free_energy=-364.48707268 pbc="T T T"
Ru       0.00064720       0.00104199      21.62611728  T       0.00308165       0.00394112       0.01089868
Ru       9.50501123       2.35758787      21.62693142  T       0.00282766       0.00171012       0.01126460
Ru       6.79382254       7.05500212      21.62772328  T       0.00213450       0.00377144       0.01342118
Ru       4.08298170       2.36091055      21.68368665  T      -0.00202354      -0.00378026       0.02173021
Ru       9.52646427       7.05385492      21.62667940  T      -0.00008023       0.00404821       0.00990523
Ru      10.86991287       4.72640870      21.62498234  T       0.00464024      -0.00545047       0.01107881
Ru       8.16003689       4.71233432      21.62926594  T      -0.00040376      -0.00001432       0.02956811
Ru       6.81732483       2.35776946      21.62488406  T      -0.00599513       0.00233646       0.01328049
Ru       5.45049522       4.72742030      21.62397777  T      -0.00092690      -0.00670136       0.01140172
Ru       1.36086182       0.78608882      19.56771151  T      -0.00109629       0.00030637       0.00522545
Ru       4.07985686       0.78616012      19.58287000  T       0.00036451       0.00238586       0.00634903
Ru       2.71980072       3.14129108      19.58244502  T       0.00089155       0.00007961       0.00458625
Ru       5.44079276       3.14175502      19.58169400  T      -0.00080018       0.00036052       0.00575873
Ru       6.79936819       0.78580987      19.56699827  T       0.00230531       0.00219726       0.00638151
Ru       4.07981802       5.49670129      19.56639618  T       0.00180656       0.00292012       0.00519711
Ru       9.51904572       5.49704059      19.56287474  T      -0.00393353      -0.00182373       0.01501158
Ru       6.80027162       5.49778793      19.56298917  T       0.00427444      -0.00229436       0.01455316
Ru       8.16016421       3.14124332      19.56292584  T       0.00006099       0.00517875       0.01561117
Ru       0.00000000       0.00000000      17.47074105  F       0.00300484       0.00468386      -0.87075202
Ru       1.35980778       2.35525603      17.47074105  F       0.05317716       0.01255792      -0.82323585
Ru       2.71961556       0.00000000      17.47074105  F       0.03733057       0.04358355      -0.82414019
Ru       4.07942334       2.35525603      17.47074105  F       0.00226768       0.00400630      -0.75125481
Ru       5.43923120       0.00000000      17.47074105  F      -0.03533292       0.04199303      -0.82544335
Ru       2.71961560       4.71051213      17.47074105  F       0.01492135      -0.04709671      -0.82582796
Ru       8.15884680       4.71051213      17.47074105  F       0.00128420       0.00266353      -0.91550903
Ru       6.79903898       2.35525603      17.47074105  F      -0.04576368       0.01379971      -0.82362643
Ru       5.43923116       4.71051213      17.47074105  F      -0.01057577      -0.04376357      -0.82444398
Ru       1.35980778       0.78508534      15.28689842  F      -0.01151865      -0.00600020       0.80634861
Ru       4.07942334       0.78508534      15.28689842  F      -0.00035709       0.00422150       0.81415364
Ru       2.71961556       3.14034137      15.28689842  F       0.00345929      -0.00263894       0.81322293
Ru       5.43923112       3.14034137      15.28689842  F      -0.00426148      -0.00266487       0.81346153
Ru       6.79903898       0.78508534      15.28689842  F       0.01059723      -0.00532713       0.80697614
Ru       4.07942338       5.49559747      15.28689842  F       0.00013065       0.01075199       0.80796779
Ru       9.51865458       5.49559747      15.28689842  F       0.02469767       0.01355337       0.80145471
Ru       6.79903894       5.49559747      15.28689842  F      -0.02503048       0.01360919       0.80241545
Ru       8.15884676       3.14034137      15.28689842  F      -0.00024097      -0.02889032       0.80237403
N        4.11104466       2.40364255       2.06985129  T      -0.00752111      -0.01051439       0.02352609
H        4.12945241       1.45020913       2.44357053  T      -0.00587991      -0.01236851      -0.00409784
H        4.94309887       2.90342299       2.39847876  T      -0.00249393      -0.00706811      -0.00825222
H        3.27825885       2.88360732       2.42427999  T      -0.00902248      -0.00826254      -0.00654024
