36
Lattice="8.15884676 0.0 0.0 4.07942338 7.06576816 0.0 0.0 0.0 21.83842631" Properties=species:S:1:pos:R:3:move_mask:L:1:forces:R:3 energy=-343.70618259 stress="0.042665430909775516 1.1711898523791019e-05 3.915664427101345e-05 1.1711898523791019e-05 0.04266916796967407 5.641871116235926e-05 3.915664427101345e-05 5.641871116235926e-05 0.013245503806817254" free_energy=-343.6970878 pbc="T T T"
Ru       0.00094590       0.00134709      21.63733022  T      -0.00014910      -0.00007261      -0.00922678
Ru       9.51928012       2.35640782      21.63759577  T       0.00173236       0.00232429      -0.01140015
Ru       2.72022857       0.00125820      21.63746933  T       0.00231385       0.00157842      -0.01013873
Ru       4.08053890       2.35690009      21.63839965  T      -0.00017328      -0.00093564      -0.01331939
Ru       5.44055763       0.00112056      21.63749008  T      -0.00235384       0.00050119      -0.01016480
Ru      10.87938092       4.71244087      21.63752283  T       0.00024516      -0.00287485      -0.01062635
Ru       8.15982195       4.71189010      21.63682379  T      -0.00118135      -0.00163828      -0.00561195
Ru       6.80045813       2.35635589      21.63752436  T      -0.00224142       0.00077721      -0.01002920
Ru       5.44030291       4.71252262      21.63753790  T       0.00024848      -0.00327533      -0.01057832
Ru       1.36051780       0.78602135      19.57226591  T      -0.00347563      -0.00307320       0.00089516
Ru       4.08001204       0.78624053      19.57303812  T      -0.00072637      -0.00250802      -0.00884503
Ru       2.72042459       3.14117782      19.57303223  T      -0.00242587      -0.00088268      -0.00872113
Ru       5.43973705       3.14117768      19.57301803  T       0.00017766      -0.00020499      -0.00926415
Ru       6.79955743       0.78604834      19.57222617  T      -0.00080560      -0.00295416       0.00100799
Ru       4.08000637       5.49645929      19.57222901  T      -0.00098353      -0.00245138       0.00097139
Ru       9.51939736       5.49665889      19.57204316  T      -0.00346414      -0.00438196       0.00475865
Ru       6.79955144       5.49666462      19.57206391  T      -0.00078932      -0.00486913       0.00456085
Ru       8.15947271       3.14103297      19.57205102  T      -0.00189258      -0.00034037       0.00498083
Ru       0.00000000       0.00000000      17.47074105  F       0.00193949       0.00299564      -0.80796674
Ru       1.35980778       2.35525603      17.47074105  F       0.00413882       0.00319642      -0.80747626
Ru       2.71961556       0.00000000      17.47074105  F       0.00332979       0.00471524      -0.80788357
Ru       4.07942334       2.35525603      17.47074105  F       0.00208641       0.00312178      -0.80558167
Ru       5.43923120       0.00000000      17.47074105  F       0.00026987       0.00470723      -0.80776118
Ru       2.71961560       4.71051213      17.47074105  F       0.00245278       0.00080728      -0.80759138
Ru       8.15884680       4.71051213      17.47074105  F       0.00193261       0.00285015      -0.80919495
Ru       6.79903898       2.35525603      17.47074105  F      -0.00026628       0.00339386      -0.80762383
Ru       5.43923116       4.71051213      17.47074105  F       0.00136137       0.00082069      -0.80737182
Ru       1.35980778       0.78508534      15.28689842  F       0.00018418      -0.00007251       0.81886188
Ru       4.07942334       0.78508534      15.28689842  F      -0.00030789      -0.00013379       0.81907092
Ru       2.71961556       3.14034137      15.28689842  F      -0.00012357      -0.00026934       0.81892772
Ru       5.43923112       3.14034137      15.28689842  F      -0.00026457      -0.00015828       0.81902610
Ru       6.79903898       0.78508534      15.28689842  F      -0.00033275      -0.00009324       0.81924300
Ru       4.07942338       5.49559747      15.28689842  F      -0.00009738      -0.00036087       0.81923440
Ru       9.51865458       5.49559747      15.28689842  F      -0.00027295      -0.00016608       0.81807686
Ru       6.79903894       5.49559747      15.28689842  F      -0.00004852      -0.00003287       0.81817601
Ru       8.15884676       3.14034137      15.28689842  F      -0.00003684      -0.00003983       0.81858563
