40
Lattice="8.15884676 0.0 0.0 4.07942338 7.06576816 0.0 0.0 0.0 21.83842631" Properties=species:S:1:pos:R:3:move_mask:L:1:forces:R:3 energy=-361.2367244 stress="0.04792471158495637 -3.3978463605852167e-06 0.00011899869060927944 -3.3978463605852167e-06 0.0479569711057414 0.0001809811266970149 0.00011899869060927944 0.0001809811266970149 0.014518577339110803" free_energy=-361.24767272 pbc="T T T"
Ru       0.00075767       0.00113907      21.60644588  T      -0.00174591      -0.00212096       0.11712197
Ru       9.49875242       2.35470702      21.60151782  T       0.02207831       0.00970203       0.09670212
Ru       6.78850709       7.05125281      21.60218913  T       0.02155688       0.01551453       0.10016984
Ru       4.08323095       2.36120859      21.67732926  T       0.00050894      -0.00103795       0.04799181
Ru       9.53146356       7.04966132      21.60102908  T      -0.01954311       0.01379444       0.09765443
Ru      10.86869532       4.73284066      21.59966199  T      -0.00024035      -0.01812942       0.09621554
Ru       8.15981395       4.71206519      21.60393009  T      -0.00242742      -0.00319339       0.12737160
Ru       6.82354665       2.35496400      21.59986269  T      -0.01834647       0.00882831       0.09616495
Ru       5.45150296       4.73415914      21.59887843  T      -0.00010514      -0.01677011       0.09431810
Ru       1.36038587       0.78589317      19.56096278  T      -0.00442750      -0.00195918      -0.06819039
Ru       4.07989965       0.79226501      19.57772356  T      -0.00064103      -0.01008369      -0.06071227
Ru       2.72499244       3.13830763      19.57727237  T      -0.00858103       0.00432451      -0.06220088
Ru       5.43562723       3.13874401      19.57675830  T       0.00766682       0.00365910      -0.06545278
Ru       6.79976520       0.78574091      19.56031658  T       0.00773149      -0.00244987      -0.06995976
Ru       4.07988656       5.49690181      19.55976036  T       0.00042067       0.00879732      -0.06976351
Ru       9.51982868       5.49735989      19.56340257  T       0.00296630       0.00371976      -0.07140776
Ru       6.79932691       5.49794804      19.56352006  T       0.00043808       0.00356363      -0.07360413
Ru       8.16000960       3.14024168      19.56358012  T       0.00215761       0.00005693      -0.07379807
Ru       0.00000000       0.00000000      17.47074105  F       0.00294343       0.00444314      -1.01005099
Ru       1.35980778       2.35525603      17.47074105  F       0.06006418       0.02080901      -0.98687415
Ru       2.71961556       0.00000000      17.47074105  F       0.04889390       0.04544434      -0.98783483
Ru       4.07942334       2.35525603      17.47074105  F       0.00224323       0.00316323      -0.86251658
Ru       5.43923120       0.00000000      17.47074105  F      -0.04671756       0.04346464      -0.99081253
Ru       2.71961560       4.71051213      17.47074105  F       0.01072728      -0.05748555      -0.99253860
Ru       8.15884680       4.71051213      17.47074105  F       0.00181494       0.00294625      -1.01203809
Ru       6.79903898       2.35525603      17.47074105  F      -0.05301005       0.02176265      -0.98848009
Ru       5.43923116       4.71051213      17.47074105  F      -0.00692576      -0.05446357      -0.99099697
Ru       1.35980778       0.78508534      15.28689842  F       0.01394595       0.00769979       0.96701747
Ru       4.07942334       0.78508534      15.28689842  F       0.00002803      -0.01027404       0.96274936
Ru       2.71961556       3.14034137      15.28689842  F      -0.00862806       0.00479338       0.96254049
Ru       5.43923112       3.14034137      15.28689842  F       0.00861523       0.00475544       0.96202718
Ru       6.79903898       0.78508534      15.28689842  F      -0.01523816       0.00827881       0.96760882
Ru       4.07942338       5.49559747      15.28689842  F      -0.00013419      -0.01848961       0.96823290
Ru       9.51865458       5.49559747      15.28689842  F       0.00706843       0.00380353       0.94410674
Ru       6.79903894       5.49559747      15.28689842  F      -0.00802846       0.00390202       0.94298629
Ru       8.15884676       3.14034137      15.28689842  F      -0.00043573      -0.00983464       0.94207594
N        4.11209707       2.40534724       2.05866062  T      -0.00227858      -0.00364508       0.29494539
H        4.13058269       1.45131147       2.44566986  T      -0.01024332       0.15641913      -0.11684326
H        4.94486110       2.90553254       2.40189561  T      -0.15259023      -0.09830848      -0.11658396
H        3.27888472       2.88580789       2.42706417  T       0.13841841      -0.09540041      -0.11734132
40
Lattice="8.15884676 0.0 0.0 4.07942338 7.06576816 0.0 0.0 0.0 21.83842631" Properties=species:S:1:pos:R:3:move_mask:L:1:forces:R:3 energy=-361.23931459000005 stress="0.047980849016268465 -3.010566960833286e-06 0.00011844656671200379 -3.010566960833286e-06 0.04801243288744911 0.00018012089694324917 0.00011844656671200379 0.00018012089694324917 0.014723030147713414" free_energy=-361.25027573 pbc="T T T"
Ru       0.00074082       0.00111865      21.60757602  T      -0.00093609      -0.00091879       0.10050708
Ru       9.49896541       2.35480064      21.60245098  T       0.02065989       0.00958502       0.08193865
Ru       6.78871506       7.05140246      21.60315570  T       0.01973619       0.01425595       0.08289885
Ru       4.08323585       2.36119855      21.67779245  T       0.00056627      -0.00013263       0.05148730
Ru       9.53127501       7.04979444      21.60197140  T      -0.01742427       0.01225168       0.08198085
Ru      10.86869296       4.73266572      21.60059034  T      -0.00077758      -0.01668238       0.08141629
Ru       8.15979053       4.71203438      21.60515894  T      -0.00176233      -0.00264291       0.11053285
Ru       6.82336964       2.35504914      21.60079038  T      -0.01630125       0.00859641       0.08001125
Ru       5.45150190       4.73399733      21.59978865  T       0.00015148      -0.01590999       0.07900251
Ru       1.36034316       0.78587431      19.56030479  T      -0.00444528      -0.00186198      -0.04985536
Ru       4.07989345       0.79216779      19.57713785  T      -0.00000780      -0.01138165      -0.04460912
Ru       2.72490963       3.13834932      19.57667225  T      -0.00922040       0.00557275      -0.04863754
Ru       5.43570119       3.13877927      19.57612673  T       0.00872198       0.00464322      -0.05158505
Ru       6.79983973       0.78571723      19.55964156  T       0.00538021      -0.00341996      -0.04966124
Ru       4.07989064       5.49698674      19.55908730  T       0.00008408       0.00745195      -0.05077758
Ru       9.51985732       5.49739578      19.56271357  T       0.00185238       0.00213051      -0.04723375
Ru       6.79933119       5.49798245      19.56280988  T       0.00078425       0.00249523      -0.04845035
Ru       8.16003040       3.14024224      19.56286818  T       0.00165532       0.00089864      -0.05196233
Ru       0.00000000       0.00000000      17.47074105  F       0.00298995       0.00425161      -1.01376208
Ru       1.35980778       2.35525603      17.47074105  F       0.06031717       0.02084993      -0.99022007
Ru       2.71961556       0.00000000      17.47074105  F       0.04876504       0.04558919      -0.99123500
Ru       4.07942334       2.35525603      17.47074105  F       0.00214286       0.00341246      -0.86522427
Ru       5.43923120       0.00000000      17.47074105  F      -0.04646807       0.04344000      -0.99393132
Ru       2.71961560       4.71051213      17.47074105  F       0.01096788      -0.05730603      -0.99528613
Ru       8.15884680       4.71051213      17.47074105  F       0.00209852       0.00317406      -1.01512102
Ru       6.79903898       2.35525603      17.47074105  F      -0.05301906       0.02173679      -0.99173973
Ru       5.43923116       4.71051213      17.47074105  F      -0.00723152      -0.05425464      -0.99394245
Ru       1.35980778       0.78508534      15.28689842  F       0.01350331       0.00764644       0.96517232
Ru       4.07942334       0.78508534      15.28689842  F       0.00008513      -0.01011647       0.96200237
Ru       2.71961556       3.14034137      15.28689842  F      -0.00863337       0.00528915       0.96079993
Ru       5.43923112       3.14034137      15.28689842  F       0.00854929       0.00514474       0.96042793
Ru       6.79903898       0.78508534      15.28689842  F      -0.01478183       0.00806544       0.96577795
Ru       4.07942338       5.49559747      15.28689842  F      -0.00026557      -0.01840165       0.96583639
Ru       9.51865458       5.49559747      15.28689842  F       0.00754813       0.00354753       0.94222450
Ru       6.79903894       5.49559747      15.28689842  F      -0.00831457       0.00367990       0.94137779
Ru       8.15884676       3.14034137      15.28689842  F      -0.00030621      -0.00978424       0.94016642
N        4.11207513       2.40531205       2.06150639  T      -0.00437745      -0.00696912       0.15864573
H        4.13048389       1.45282071       2.44454256  T      -0.00827299       0.06138624      -0.07101684
H        4.94338883       2.90458403       2.40077093  T      -0.06932886      -0.04815024      -0.07473733
H        3.28022024       2.88488736       2.42593207  T       0.05531516      -0.04716215      -0.07321839
40
Lattice="8.15884676 0.0 0.0 4.07942338 7.06576816 0.0 0.0 0.0 21.83842631" Properties=species:S:1:pos:R:3:move_mask:L:1:forces:R:3 energy=-361.24042671999996 stress="0.047907127743303544 -2.0472274763079602e-06 0.00011532764091123606 -2.0472274763079602e-06 0.047934248579693174 0.0001836682524134358 0.00011532764091123606 0.0001836682524134358 0.015001243800448795" free_energy=-361.25147768 pbc="T T T"
Ru       0.00072051       0.00109873      21.60975331  T      -0.00132911      -0.00103683       0.05287527
Ru       9.49941304       2.35500830      21.60422600  T       0.01759606       0.00697050       0.05704296
Ru       6.78914263       7.05171131      21.60495148  T       0.01642997       0.01178756       0.05333854
Ru       4.08324804       2.36119566      21.67890774  T       0.00006611       0.00012662       0.04645544
Ru       9.53089750       7.05005983      21.60374731  T      -0.01386928       0.01031692       0.05250517
Ru      10.86867615       4.73230437      21.60235401  T       0.00089490      -0.01450487       0.05251966
Ru       8.15975235       4.71197715      21.60755352  T      -0.00063184      -0.00160327       0.07473806
Ru       6.82301653       2.35523540      21.60252370  T      -0.01205026       0.00814472       0.05150074
Ru       5.45150517       4.73365266      21.60149991  T       0.00047558      -0.01307766       0.05163424
Ru       1.36024685       0.78583396      19.55922488  T      -0.00417436      -0.00266938      -0.01483076
Ru       4.07989329       0.79192119      19.57617128  T      -0.00021367      -0.01111845      -0.02075502
Ru       2.72470994       3.13847008      19.57561855  T      -0.00946326       0.00488063      -0.02235810
Ru       5.43589015       3.13887989      19.57500926  T       0.00939721       0.00699771      -0.02486938
Ru       6.79995632       0.78564319      19.55856558  T       0.00386094      -0.00195988      -0.01567162
Ru       4.07989247       5.49714820      19.55798730  T       0.00001445       0.00369985      -0.01506605
Ru       9.51989742       5.49744192      19.56169022  T       0.00036086       0.00080954      -0.01029070
Ru       6.79934820       5.49803651      19.56176032  T       0.00106058       0.00083771      -0.00981363
Ru       8.16006626       3.14026167      19.56174241  T      -0.00046613       0.00162931      -0.00929711
Ru       0.00000000       0.00000000      17.47074105  F       0.00303583       0.00449637      -1.01726307
Ru       1.35980778       2.35525603      17.47074105  F       0.06042846       0.02119463      -0.99245162
Ru       2.71961556       0.00000000      17.47074105  F       0.04912493       0.04572778      -0.99330578
Ru       4.07942334       2.35525603      17.47074105  F       0.00210456       0.00333708      -0.86608285
Ru       5.43923120       0.00000000      17.47074105  F      -0.04679516       0.04360129      -0.99621973
Ru       2.71961560       4.71051213      17.47074105  F       0.01078398      -0.05711441      -0.99767808
Ru       8.15884680       4.71051213      17.47074105  F       0.00213630       0.00368013      -1.01668389
Ru       6.79903898       2.35525603      17.47074105  F      -0.05296990       0.02200811      -0.99395900
Ru       5.43923116       4.71051213      17.47074105  F      -0.00692586      -0.05398141      -0.99617628
Ru       1.35980778       0.78508534      15.28689842  F       0.01424637       0.00780504       0.96437756
Ru       4.07942334       0.78508534      15.28689842  F       0.00022107      -0.00958425       0.96022520
Ru       2.71961556       3.14034137      15.28689842  F      -0.00788238       0.00530675       0.95979717
Ru       5.43923112       3.14034137      15.28689842  F       0.00791225       0.00506518       0.95931909
Ru       6.79903898       0.78508534      15.28689842  F      -0.01563492       0.00825301       0.96463713
Ru       4.07942338       5.49559747      15.28689842  F      -0.00029054      -0.01887038       0.96459218
Ru       9.51865458       5.49559747      15.28689842  F       0.00742989       0.00397614       0.94074099
Ru       6.79903894       5.49559747      15.28689842  F      -0.00815434       0.00397815       0.93980574
Ru       8.15884676       3.14034137      15.28689842  F      -0.00039924      -0.00926315       0.93919834
N        4.11198032       2.40516113       2.06494332  T      -0.00647510      -0.01005588      -0.01145924
H        4.13030468       1.45415056       2.44300404  T      -0.00599830      -0.05052083      -0.01620095
H        4.94188691       2.90354091       2.39915183  T       0.02867144       0.01101473      -0.02451074
H        3.28141857       2.88386572       2.42434594  T      -0.04252809       0.00971521      -0.02035987
40
Lattice="8.15884676 0.0 0.0 4.07942338 7.06576816 0.0 0.0 0.0 21.83842631" Properties=species:S:1:pos:R:3:move_mask:L:1:forces:R:3 energy=-361.24115366000007 stress="0.04799150663027825 -4.319030692474326e-06 0.0001143254230663656 -4.319030692474326e-06 0.048021815648253904 0.00018315635504247648 0.0001143254230663656 0.00018315635504247648 0.01518782354834871" free_energy=-361.25221284 pbc="T T T"
Ru       0.00070607       0.00108728      21.61038357  T      -0.00030809      -0.00093642       0.04289816
Ru       9.49961195       2.35508829      21.60488356  T       0.01500303       0.00733696       0.04651869
Ru       6.78932877       7.05184492      21.60557169  T       0.01498709       0.01025167       0.04667993
Ru       4.08324923       2.36119686      21.67943056  T       0.00033424      -0.00000706       0.03512438
Ru       9.53073975       7.05017662      21.60435813  T      -0.01254425       0.00923927       0.04652401
Ru      10.86868472       4.73214059      21.60296462  T       0.00113100      -0.01237965       0.04560613
Ru       8.15974436       4.71195835      21.60841789  T      -0.00015192      -0.00075899       0.06190213
Ru       6.82287840       2.35532669      21.60312251  T      -0.01118988       0.00704375       0.04332438
Ru       5.45151026       4.73350435      21.60209938  T      -0.00010985      -0.01099719       0.04303225
Ru       1.36020002       0.78580485      19.55902986  T      -0.00379080      -0.00305315      -0.00515762
Ru       4.07989109       0.79179683      19.57591970  T      -0.00057739      -0.01069049      -0.01275017
Ru       2.72460449       3.13852512      19.57534688  T      -0.00857767       0.00476761      -0.01430835
Ru       5.43599450       3.13895606      19.57470920  T       0.00850176       0.00640563      -0.01660890
Ru       6.80000066       0.78562008      19.55836226  T       0.00360468      -0.00199735      -0.00611230
Ru       4.07989268       5.49719264      19.55778922  T      -0.00014739       0.00347093      -0.00654695
Ru       9.51990272       5.49745210      19.56154434  T      -0.00054590       0.00047337       0.00003896
Ru       6.79935979       5.49804725      19.56161837  T       0.00108668       0.00088968       0.00001487
Ru       8.16006288       3.14027926      19.56160287  T      -0.00002328       0.00148451       0.00052874
Ru       0.00000000       0.00000000      17.47074105  F       0.00310789       0.00468238      -1.01790120
Ru       1.35980778       2.35525603      17.47074105  F       0.05999449       0.02075155      -0.99325692
Ru       2.71961556       0.00000000      17.47074105  F       0.04864088       0.04577608      -0.99406703
Ru       4.07942334       2.35525603      17.47074105  F       0.00206856       0.00315819      -0.86658774
Ru       5.43923120       0.00000000      17.47074105  F      -0.04621920       0.04363126      -0.99681287
Ru       2.71961560       4.71051213      17.47074105  F       0.01092319      -0.05671205      -0.99843034
Ru       8.15884680       4.71051213      17.47074105  F       0.00221433       0.00351975      -1.01713431
Ru       6.79903898       2.35525603      17.47074105  F      -0.05232763       0.02157792      -0.99488735
Ru       5.43923116       4.71051213      17.47074105  F      -0.00690154      -0.05340599      -0.99718235
Ru       1.35980778       0.78508534      15.28689842  F       0.01364070       0.00801887       0.96327103
Ru       4.07942334       0.78508534      15.28689842  F       0.00009355      -0.00927340       0.96075801
Ru       2.71961556       3.14034137      15.28689842  F      -0.00815469       0.00481756       0.95994806
Ru       5.43923112       3.14034137      15.28689842  F       0.00833783       0.00481924       0.95931275
Ru       6.79903898       0.78508534      15.28689842  F      -0.01475818       0.00864249       0.96398156
Ru       4.07942338       5.49559747      15.28689842  F      -0.00000605      -0.01827106       0.96478679
Ru       9.51865458       5.49559747      15.28689842  F       0.00747335       0.00374102       0.94208524
Ru       6.79903894       5.49559747      15.28689842  F      -0.00833212       0.00378757       0.94045093
Ru       8.15884676       3.14034137      15.28689842  F      -0.00043106      -0.00993601       0.93864690
N        4.11190975       2.40505147       2.06495817  T      -0.00672085      -0.01045050      -0.00354222
H        4.13023574       1.45368055       2.44277714  T      -0.00605351      -0.03940162      -0.01770425
H        4.94212462       2.90361419       2.39883604  T       0.01960406       0.00559796      -0.02501560
H        3.28102597       2.88392634       2.42407427  T      -0.03287608       0.00438571      -0.02142745
40
Lattice="8.15884676 0.0 0.0 4.07942338 7.06576816 0.0 0.0 0.0 21.83842631" Properties=species:S:1:pos:R:3:move_mask:L:1:forces:R:3 energy=-361.24176482999997 stress="0.048095563435149584 -4.2205022294131336e-06 0.00012083363811870698 -4.2205022294131336e-06 0.048120850085493896 0.00018734196723587594 0.00012083363811870698 0.00018734196723587594 0.015456381960956899" free_energy=-361.25292972 pbc="T T T"
Ru       0.00069036       0.00104962      21.61225031  T      -0.00116756      -0.00082166       0.01380303
Ru       9.50023011       2.35538639      21.60684574  T       0.00769725       0.00465381       0.01922824
Ru       6.78994211       7.05226724      21.60753496  T       0.00786809       0.00428705       0.01856790
Ru       4.08326269       2.36119657      21.68089439  T       0.00073561      -0.00025829       0.01287837
Ru       9.53022403       7.05055521      21.60631223  T      -0.00889224       0.00482948       0.02057365
Ru      10.86872518       4.73163143      21.60488443  T       0.00130222      -0.00775972       0.02162881
Ru       8.15973371       4.71192210      21.61102998  T       0.00000228      -0.00125068       0.01720088
Ru       6.82241730       2.35561419      21.60495541  T      -0.00834038       0.00604183       0.02303211
Ru       5.45150757       4.73304918      21.60391961  T       0.00084753      -0.00614596       0.02102249
Ru       1.36004610       0.78568607      19.55870360  T      -0.00093871      -0.00068536       0.01798481
Ru       4.07986991       0.79136660      19.57532198  T       0.00052544      -0.00638190       0.00758356
Ru       2.72425815       3.13871801      19.57468103  T      -0.00725045       0.00390658       0.00730917
Ru       5.43633685       3.13920944      19.57394944  T       0.00775923       0.00437235       0.00559407
Ru       6.80014944       0.78553692      19.55800040  T       0.00129652      -0.00006278       0.01721014
Ru       4.07988762       5.49734102      19.55741033  T      -0.00023976       0.00096154       0.01801016
Ru       9.51988803       5.49747541      19.56141899  T      -0.00048147      -0.00025396       0.02351743
Ru       6.79940254       5.49808639      19.56149018  T       0.00115309      -0.00088674       0.02296396
Ru       8.16006500       3.14033763      19.56148603  T       0.00061734       0.00191270       0.02277792
Ru       0.00000000       0.00000000      17.47074105  F       0.00329111       0.00484448      -1.01654301
Ru       1.35980778       2.35525603      17.47074105  F       0.05856033       0.02065634      -0.99007905
Ru       2.71961556       0.00000000      17.47074105  F       0.04807815       0.04463926      -0.99111214
Ru       4.07942334       2.35525603      17.47074105  F       0.00209964       0.00296063      -0.86294848
Ru       5.43923120       0.00000000      17.47074105  F      -0.04546087       0.04230824      -0.99385071
Ru       2.71961560       4.71051213      17.47074105  F       0.00998994      -0.05513589      -0.99568483
Ru       8.15884680       4.71051213      17.47074105  F       0.00254197       0.00398264      -1.01213603
Ru       6.79903898       2.35525603      17.47074105  F      -0.05043915       0.02157484      -0.99203777
Ru       5.43923116       4.71051213      17.47074105  F      -0.00577392      -0.05152527      -0.99466477
Ru       1.35980778       0.78508534      15.28689842  F       0.01454780       0.00802671       0.96407615
Ru       4.07942334       0.78508534      15.28689842  F       0.00042599      -0.00925784       0.96025480
Ru       2.71961556       3.14034137      15.28689842  F      -0.00756209       0.00504924       0.95993182
Ru       5.43923112       3.14034137      15.28689842  F       0.00790358       0.00477676       0.95939850
Ru       6.79903898       0.78508534      15.28689842  F      -0.01553760       0.00835945       0.96454715
Ru       4.07942338       5.49559747      15.28689842  F      -0.00019813      -0.01864604       0.96494865
Ru       9.51865458       5.49559747      15.28689842  F       0.00716811       0.00398151       0.94118367
Ru       6.79903894       5.49559747      15.28689842  F      -0.00736912       0.00402583       0.94043118
Ru       8.15884676       3.14034137      15.28689842  F      -0.00010735      -0.00880560       0.93979899
N        4.11164658       2.40464186       2.06517240  T      -0.00563365      -0.00902091       0.00944978
H        4.12998853       1.45231346       2.44194946  T      -0.00612973      -0.01505879      -0.01906514
H        4.94272270       2.90372533       2.39772206  T      -0.00159647      -0.00686152      -0.02469041
H        3.27989393       2.88399389       2.42310028  T      -0.01129257      -0.00733239      -0.02209505
