37
Lattice="8.15884676 0.0 0.0 4.07942338 7.06576816 0.0 0.0 0.0 21.83842631" Properties=species:S:1:pos:R:3:move_mask:L:1:forces:R:3 energy=-351.94442201 stress="0.03400361063987884 4.81713432826544e-07 1.4099063553131084e-05 4.81713432826544e-07 0.033979186122948576 0.0002524240865517441 1.4099063553131084e-05 0.0002524240865517441 0.008986533964533057" free_energy=-351.94955265 pbc="T T T"
Ru       8.15849520       0.00501401      21.63867983  T      -0.01270407      -0.00830182      -0.00825439
Ru       1.37130612       2.35321459      21.64274091  T      -0.00567826      -0.00079525       0.00031971
Ru       2.71985392       0.01805933      21.64254764  T       0.00089425      -0.01125080       0.00481482
Ru       4.06851753       2.35328390      21.64271579  T       0.00550411      -0.00125240      -0.00061770
Ru       5.44024122       0.00501097      21.63864118  T       0.01128462      -0.00984498      -0.00872128
Ru      10.87880532       4.71471435      21.63823084  T       0.00009839       0.01782379      -0.00944511
Ru       8.17309867       4.72399672      21.67017871  T      -0.00464985      -0.00401356       0.00360945
Ru       6.79938451       2.34903589      21.67239290  T      -0.00197135      -0.00490608      -0.00433264
Ru       5.42561311       4.72404159      21.67021518  T       0.00480357      -0.00347626       0.00250584
Ru       1.35983079       0.78777952      19.56012790  T       0.00173631      -0.00318584       0.05456355
Ru       4.07971343       0.78774228      19.56012899  T      -0.00110990      -0.00192981       0.05444208
Ru       2.71974745       3.14273957      19.55999796  T       0.00001729       0.00150513       0.05512421
Ru       5.44082964       3.14393326      19.57303747  T       0.00047633      -0.00113144       0.03654561
Ru       6.79922704       0.79125955      19.56192520  T      -0.00033058      -0.01196508       0.07153783
Ru       4.08070285       5.49777401      19.56014581  T      -0.00024240      -0.00102835       0.07567306
Ru       9.51772039       5.49775140      19.56008073  T      -0.00040061       0.00054497       0.07818321
Ru       6.79924466       5.49676368      19.57272714  T      -0.00080615      -0.00333869       0.03312818
Ru       8.15765463       3.14394739      19.57302131  T      -0.00105276      -0.00068005       0.03643752
Ru       0.00000000       0.00000000      17.47074105  F      -0.00899903       0.00804707      -0.70099368
Ru       1.35980778       2.35525603      17.47074105  F      -0.03735427       0.02968776      -0.65032340
Ru       2.71961556       0.00000000      17.47074105  F       0.00044040      -0.03577498      -0.64949512
Ru       4.07942334       2.35525603      17.47074105  F       0.03839588       0.02975775      -0.65000908
Ru       5.43923120       0.00000000      17.47074105  F       0.01003842       0.00822513      -0.70096311
Ru       2.71961560       4.71051213      17.47074105  F       0.00069801       0.01460724      -0.70400394
Ru       8.15884680       4.71051213      17.47074105  F      -0.01003078       0.00167315      -0.61671335
Ru       6.79903898       2.35525603      17.47074105  F       0.00049165       0.02357298      -0.61663909
Ru       5.43923116       4.71051213      17.47074105  F       0.01097207       0.00167066      -0.61635193
Ru       1.35980778       0.78508534      15.28689842  F       0.01655438       0.00908354       0.59856649
Ru       4.07942334       0.78508534      15.28689842  F      -0.01660770       0.00907723       0.59858180
Ru       2.71961556       3.14034137      15.28689842  F      -0.00003197      -0.01836427       0.59673212
Ru       5.43923112       3.14034137      15.28689842  F       0.00334343       0.00135063       0.62608682
Ru       6.79903898       0.78508534      15.28689842  F      -0.00000067       0.01964756       0.59636720
Ru       4.07942338       5.49559747      15.28689842  F       0.01640622      -0.00934719       0.59483625
Ru       9.51865458       5.49559747      15.28689842  F      -0.01640247      -0.00934613       0.59485131
Ru       6.79903894       5.49559747      15.28689842  F      -0.00004239      -0.00384790       0.62647094
Ru       8.15884676       3.14034137      15.28689842  F      -0.00336746       0.00131567       0.62605856
H        6.79948339       3.94772388       0.87370586  T      -0.00037265      -0.03380937      -0.02857275
37
Lattice="8.15884676 0.0 0.0 4.07942338 7.06576816 0.0 0.0 0.0 21.83842631" Properties=species:S:1:pos:R:3:move_mask:L:1:forces:R:3 energy=-351.94582008000003 stress="0.03420422307288233 1.9875461660462648e-07 1.3875829737734743e-05 1.9875461660462648e-07 0.034187596797318094 0.00024380328293952848 1.3875829737734743e-05 0.00024380328293952848 0.00918351850787411" free_energy=-351.95092824 pbc="T T T"
Ru       8.15837257       0.00493388      21.63860012  T      -0.01123134      -0.00776137      -0.00260015
Ru       1.37125126       2.35320689      21.64274418  T      -0.00532755      -0.00086073       0.00385246
Ru       2.71986249       0.01795080      21.64259415  T       0.00024150      -0.01065128       0.00770892
Ru       4.06857069       2.35327182      21.64270968  T       0.00520593      -0.00127691       0.00297211
Ru       5.44035015       0.00491601      21.63855710  T       0.00974843      -0.00849759      -0.00308231
Ru      10.87880630       4.71488634      21.63813977  T      -0.00016383       0.01510050      -0.00358276
Ru       8.17305380       4.72395800      21.67021365  T      -0.00461206      -0.00438348       0.00640740
Ru       6.79936550       2.34898855      21.67235119  T      -0.00188564      -0.00512519      -0.00149736
Ru       5.42565941       4.72400803      21.67023942  T       0.00478071      -0.00380235       0.00537555
Ru       1.35984755       0.78774878      19.56065442  T       0.00192092      -0.00214282       0.04969320
Ru       4.07970266       0.78772363      19.56065421  T      -0.00191011      -0.00063779       0.05038853
Ru       2.71974757       3.14275405      19.56052973  T       0.00077332       0.00131026       0.05042966
Ru       5.44083425       3.14392230      19.57339016  T      -0.00006692      -0.00121577       0.03411984
Ru       6.79922386       0.79114410      19.56261551  T       0.00019765      -0.01252006       0.06262804
Ru       4.08070053       5.49776405      19.56087587  T       0.00009291      -0.00228087       0.06886180
Ru       9.51771656       5.49775663      19.56083525  T      -0.00069504      -0.00029971       0.06850808
Ru       6.79923691       5.49673146      19.57304686  T      -0.00095931      -0.00137908       0.02896705
Ru       8.15764447       3.14394082      19.57337290  T      -0.00118640      -0.00029382       0.03286858
Ru       0.00000000       0.00000000      17.47074105  F      -0.00918692       0.00768464      -0.69993814
Ru       1.35980778       2.35525603      17.47074105  F      -0.03667757       0.02945855      -0.64977577
Ru       2.71961556       0.00000000      17.47074105  F       0.00050932      -0.03509202      -0.64904555
Ru       4.07942334       2.35525603      17.47074105  F       0.03780378       0.02954440      -0.64951707
Ru       5.43923120       0.00000000      17.47074105  F       0.01031778       0.00782494      -0.69991347
Ru       2.71961560       4.71051213      17.47074105  F       0.00066867       0.01489364      -0.70287678
Ru       8.15884680       4.71051213      17.47074105  F      -0.00890833       0.00202659      -0.61605936
Ru       6.79903898       2.35525603      17.47074105  F       0.00054829       0.02237974      -0.61588659
Ru       5.43923116       4.71051213      17.47074105  F       0.00998468       0.00197195      -0.61579811
Ru       1.35980778       0.78508534      15.28689842  F       0.01649644       0.00910105       0.59916888
Ru       4.07942334       0.78508534      15.28689842  F      -0.01644500       0.00912055       0.59918705
Ru       2.71961556       3.14034137      15.28689842  F       0.00004029      -0.01827500       0.59738634
Ru       5.43923112       3.14034137      15.28689842  F       0.00325492       0.00125050       0.62636575
Ru       6.79903898       0.78508534      15.28689842  F       0.00004922       0.01948838       0.59723903
Ru       4.07942338       5.49559747      15.28689842  F       0.01626309      -0.00933378       0.59580919
Ru       9.51865458       5.49559747      15.28689842  F      -0.01615310      -0.00932540       0.59582388
Ru       6.79903894       5.49559747      15.28689842  F       0.00000123      -0.00378172       0.62671974
Ru       8.15884676       3.14034137      15.28689842  F      -0.00319628       0.00122428       0.62634356
H        6.79947988       3.94739772       0.87343026  T      -0.00029369      -0.03344322      -0.02725119
37
Lattice="8.15884676 0.0 0.0 4.07942338 7.06576816 0.0 0.0 0.0 21.83842631" Properties=species:S:1:pos:R:3:move_mask:L:1:forces:R:3 energy=-351.94705728 stress="0.034180568595898964 3.867869446818981e-06 1.3263007164209896e-05 3.867869446818981e-06 0.0341752022649412 0.0002507703238107318 1.3263007164209896e-05 0.0002507703238107318 0.009223284285986755" free_energy=-351.95221847 pbc="T T T"
Ru       8.15765867       0.00444055      21.63843481  T      -0.00188842      -0.00473754       0.02467779
Ru       1.37091266       2.35315220      21.64298899  T      -0.00209605      -0.00229519       0.02034160
Ru       2.71987791       0.01727375      21.64308421  T       0.00003619      -0.00725230       0.02154026
Ru       4.06890157       2.35319064      21.64289858  T       0.00251255      -0.00248237       0.02139324
Ru       5.44096977       0.00437583      21.63836121  T       0.00170134      -0.00448971       0.02600555
Ru      10.87879585       4.71584615      21.63791199  T      -0.00092671       0.00109775       0.02845208
Ru       8.17276065       4.72367933      21.67062093  T      -0.00276167      -0.00350335       0.01696948
Ru       6.79924564       2.34866282      21.67225598  T      -0.00089901      -0.00841524       0.01160361
Ru       5.42596332       4.72376638      21.67058097  T       0.00068373      -0.00295935       0.01780639
Ru       1.35996961       0.78761256      19.56381313  T       0.00142071       0.00318056       0.00685157
Ru       4.07958129       0.78768314      19.56385703  T      -0.00211221       0.00232249       0.00614409
Ru       2.71979673       3.14283736      19.56373539  T      -0.00037482      -0.00082996       0.00735847
Ru       5.44083005       3.14384508      19.57555893  T       0.00106747       0.00138544       0.00903962
Ru       6.79923638       0.79034828      19.56659622  T       0.00003817       0.00219142       0.00019019
Ru       4.08070644       5.49761913      19.56525294  T       0.00581892      -0.00126063       0.00024789
Ru       9.51767238       5.49773762      19.56518983  T      -0.00552779      -0.00208940       0.00120443
Ru       6.79917597       5.49664384      19.57488805  T       0.00065763      -0.00101172       0.01146101
Ru       8.15756908       3.14392216      19.57546219  T      -0.00026494       0.00049864       0.01036305
Ru       0.00000000       0.00000000      17.47074105  F      -0.01051748       0.00454263      -0.68078645
Ru       1.35980778       2.35525603      17.47074105  F      -0.03512203       0.02771456      -0.63369731
Ru       2.71961556       0.00000000      17.47074105  F       0.00051338      -0.03353460      -0.63413011
Ru       4.07942334       2.35525603      17.47074105  F       0.03612844       0.02773891      -0.63384606
Ru       5.43923120       0.00000000      17.47074105  F       0.01138479       0.00501294      -0.68107288
Ru       2.71961560       4.71051213      17.47074105  F       0.00038984       0.01652141      -0.68336719
Ru       8.15884680       4.71051213      17.47074105  F      -0.00515153       0.00278237      -0.60058747
Ru       6.79903898       2.35525603      17.47074105  F       0.00035637       0.01612025      -0.59935978
Ru       5.43923116       4.71051213      17.47074105  F       0.00592077       0.00241836      -0.60053237
Ru       1.35980778       0.78508534      15.28689842  F       0.01619706       0.00830651       0.60575308
Ru       4.07942334       0.78508534      15.28689842  F      -0.01627404       0.00829629       0.60574825
Ru       2.71961556       3.14034137      15.28689842  F      -0.00004262      -0.01897899       0.60457139
Ru       5.43923112       3.14034137      15.28689842  F       0.00356080       0.00060333       0.63099785
Ru       6.79903898       0.78508534      15.28689842  F      -0.00005806       0.01861551       0.60419887
Ru       4.07942338       5.49559747      15.28689842  F       0.01613956      -0.01014522       0.60346071
Ru       9.51865458       5.49559747      15.28689842  F      -0.01628924      -0.01013639       0.60342931
Ru       6.79903894       5.49559747      15.28689842  F      -0.00001618      -0.00493381       0.63092729
Ru       8.15884676       3.14034137      15.28689842  F      -0.00365212       0.00068659       0.63096199
H        6.79946120       3.94527192       0.87169804  T      -0.00055281      -0.03098019      -0.01431941
37
Lattice="8.15884676 0.0 0.0 4.07942338 7.06576816 0.0 0.0 0.0 21.83842631" Properties=species:S:1:pos:R:3:move_mask:L:1:forces:R:3 energy=-351.94714134000003 stress="0.034204900594939455 1.8969569025931951e-06 1.3333486285259369e-05 1.8969569025931951e-06 0.03419696190713508 0.0002477717655134567 1.3333486285259369e-05 0.0002477717655134567 0.00927461946272834" free_energy=-351.95231459 pbc="T T T"
Ru       8.15769118       0.00443257      21.63866498  T      -0.00163974      -0.00382096       0.02060030
Ru       1.37091744       2.35313559      21.64315234  T      -0.00228249      -0.00194198       0.01864816
Ru       2.71987713       0.01725616      21.64324123  T       0.00006070      -0.00702947       0.02065993
Ru       4.06890100       2.35317424      21.64307525  T       0.00232899      -0.00265351       0.02038814
Ru       5.44094215       0.00437336      21.63860515  T       0.00235842      -0.00353670       0.02114015
Ru      10.87878839       4.71578969      21.63817995  T      -0.00155818       0.00119587       0.02385443
Ru       8.17275637       4.72366753      21.67074323  T      -0.00213892      -0.00330177       0.01613099
Ru       6.79924597       2.34861067      21.67236539  T      -0.00129531      -0.00799195       0.01106127
Ru       5.42594839       4.72375677      21.67071528  T       0.00000335      -0.00303652       0.01622447
Ru       1.35997377       0.78765015      19.56365590  T       0.00158489       0.00309376       0.00993559
Ru       4.07957097       0.78770653      19.56369062  T      -0.00120125       0.00240279       0.00934889
Ru       2.71979008       3.14282428      19.56357946  T      -0.00021038      -0.00040838       0.00959837
Ru       5.44083980       3.14386267      19.57548948  T       0.00039965       0.00028354       0.01065033
Ru       6.79923589       0.79042261      19.56632324  T      -0.00048916       0.00062707       0.00366259
Ru       4.08075756       5.49761793      19.56495332  T       0.00511985      -0.00045933       0.00401621
Ru       9.51762644       5.49772038      19.56490003  T      -0.00480790      -0.00180582       0.00503617
Ru       6.79918592       5.49664088      19.57486272  T       0.00056170      -0.00081039       0.01268779
Ru       8.15757186       3.14392782      19.57540977  T      -0.00003695       0.00032772       0.01171423
Ru       0.00000000       0.00000000      17.47074105  F      -0.01029410       0.00462784      -0.68138262
Ru       1.35980778       2.35525603      17.47074105  F      -0.03524141       0.02771444      -0.63389652
Ru       2.71961556       0.00000000      17.47074105  F       0.00051383      -0.03385310      -0.63423477
Ru       4.07942334       2.35525603      17.47074105  F       0.03625805       0.02772330      -0.63403251
Ru       5.43923120       0.00000000      17.47074105  F       0.01117512       0.00504939      -0.68151122
Ru       2.71961560       4.71051213      17.47074105  F       0.00040424       0.01615321      -0.68383653
Ru       8.15884680       4.71051213      17.47074105  F      -0.00555194       0.00246623      -0.60096796
Ru       6.79903898       2.35525603      17.47074105  F       0.00038842       0.01648282      -0.59980517
Ru       5.43923116       4.71051213      17.47074105  F       0.00639457       0.00215327      -0.60089811
Ru       1.35980778       0.78508534      15.28689842  F       0.01616206       0.00817152       0.60557411
Ru       4.07942334       0.78508534      15.28689842  F      -0.01623620       0.00818314       0.60562102
Ru       2.71961556       3.14034137      15.28689842  F      -0.00002453      -0.01905271       0.60446891
Ru       5.43923112       3.14034137      15.28689842  F       0.00346431       0.00045585       0.63120853
Ru       6.79903898       0.78508534      15.28689842  F      -0.00003538       0.01832682       0.60385326
Ru       4.07942338       5.49559747      15.28689842  F       0.01601016      -0.01018916       0.60293852
Ru       9.51865458       5.49559747      15.28689842  F      -0.01610518      -0.01017848       0.60298363
Ru       6.79903894       5.49559747      15.28689842  F      -0.00003470      -0.00494940       0.63129975
Ru       8.15884676       3.14034137      15.28689842  F      -0.00354471       0.00050551       0.63121293
H        6.79945757       3.94514395       0.87169061  T      -0.00045987      -0.03092443      -0.01395325
37
Lattice="8.15884676 0.0 0.0 4.07942338 7.06576816 0.0 0.0 0.0 21.83842631" Properties=species:S:1:pos:R:3:move_mask:L:1:forces:R:3 energy=-351.94720080999997 stress="0.03421693658382461 4.103392793684186e-06 1.2170374818141899e-05 4.103392793684186e-06 0.03420606215851231 0.00024303748721883736 1.2170374818141899e-05 0.00024303748721883736 0.009340094254107844" free_energy=-351.95240146 pbc="T T T"
Ru       8.15773540       0.00439724      21.63919173  T      -0.00367264      -0.00256855       0.01210733
Ru       1.37090059       2.35309426      21.64358496  T      -0.00150556      -0.00171569       0.01460622
Ru       2.71987685       0.01716183      21.64369590  T      -0.00040069      -0.00548889       0.01695709
Ru       4.06891948       2.35311765      21.64355876  T       0.00187908      -0.00182137       0.01535203
Ru       5.44092824       0.00435068      21.63914783  T       0.00307584      -0.00345926       0.01275229
Ru      10.87874996       4.71570575      21.63879427  T      -0.00144142       0.00156008       0.01556326
Ru       8.17273879       4.72361871      21.67109505  T      -0.00026778      -0.00314216       0.01251535
Ru       6.79922741       2.34845106      21.67265103  T      -0.00090413      -0.00898185       0.00785777
Ru       5.42591148       4.72370978      21.67107627  T      -0.00077636      -0.00324044       0.01242256
Ru       1.35999890       0.78774313      19.56353273  T       0.00097553       0.00213908       0.01469811
Ru       4.07955665       0.78777118      19.56354758  T      -0.00059920       0.00180197       0.01446297
Ru       2.71977923       3.14280478      19.56344101  T       0.00013665       0.00050765       0.01464051
Ru       5.44084926       3.14387737      19.57549931  T       0.00002715       0.00002974       0.01303489
Ru       6.79922149       0.79053051      19.56594697  T       0.00006556      -0.00299984       0.01195346
Ru       4.08088332       5.49762478      19.56453904  T       0.00273640      -0.00017050       0.01490194
Ru       9.51751304       5.49767813      19.56451415  T      -0.00213707      -0.00083492       0.01502620
Ru       6.79920705       5.49663141      19.57496165  T       0.00024876      -0.00075301       0.01419655
Ru       8.15758026       3.14393799      19.57545542  T      -0.00014194       0.00005470       0.01360020
Ru       0.00000000       0.00000000      17.47074105  F      -0.01000152       0.00491918      -0.68161123
Ru       1.35980778       2.35525603      17.47074105  F      -0.03561431       0.02823500      -0.63394500
Ru       2.71961556       0.00000000      17.47074105  F       0.00048512      -0.03433538      -0.63395552
Ru       4.07942334       2.35525603      17.47074105  F       0.03650206       0.02819881      -0.63405864
Ru       5.43923120       0.00000000      17.47074105  F       0.01079993       0.00511597      -0.68165195
Ru       2.71961560       4.71051213      17.47074105  F       0.00035813       0.01559464      -0.68389069
Ru       8.15884680       4.71051213      17.47074105  F      -0.00643158       0.00171300      -0.60167060
Ru       6.79903898       2.35525603      17.47074105  F       0.00040909       0.01754805      -0.60047998
Ru       5.43923116       4.71051213      17.47074105  F       0.00731703       0.00148365      -0.60136751
Ru       1.35980778       0.78508534      15.28689842  F       0.01623294       0.00835600       0.60550357
Ru       4.07942334       0.78508534      15.28689842  F      -0.01632304       0.00829106       0.60555174
Ru       2.71961556       3.14034137      15.28689842  F      -0.00010673      -0.01917552       0.60444658
Ru       5.43923112       3.14034137      15.28689842  F       0.00357492       0.00047661       0.63127226
Ru       6.79903898       0.78508534      15.28689842  F      -0.00011748       0.01864189       0.60382434
Ru       4.07942338       5.49559747      15.28689842  F       0.01615355      -0.01050682       0.60258889
Ru       9.51865458       5.49559747      15.28689842  F      -0.01638898      -0.01049237       0.60256708
Ru       6.79903894       5.49559747      15.28689842  F       0.00000793      -0.00528089       0.63138288
Ru       8.15884676       3.14034137      15.28689842  F      -0.00367340       0.00058055       0.63121912
H        6.79944839       3.94462667       0.87154932  T      -0.00048183      -0.03028014      -0.01237409
37
Lattice="8.15884676 0.0 0.0 4.07942338 7.06576816 0.0 0.0 0.0 21.83842631" Properties=species:S:1:pos:R:3:move_mask:L:1:forces:R:3 energy=-351.9472532 stress="0.03423488755728572 3.378029569110537e-06 1.2284894027583604e-05 3.378029569110537e-06 0.03422184484418611 0.00024189175211312633 1.2284894027583604e-05 0.00024189175211312633 0.009374514229586241" free_energy=-351.95246338 pbc="T T T"
Ru       8.15769959       0.00437279      21.63930245  T      -0.00315010      -0.00231471       0.01160662
Ru       1.37088611       2.35307822      21.64372058  T      -0.00143791      -0.00162039       0.01412507
Ru       2.71987301       0.01710997      21.64385379  T       0.00015866      -0.00464711       0.01641102
Ru       4.06893743       2.35310069      21.64370092  T      -0.00005355      -0.00180131       0.01391139
Ru       5.44095794       0.00431761      21.63926445  T       0.00254216      -0.00323184       0.01229228
Ru      10.87873658       4.71572186      21.63893709  T      -0.00119132       0.00089658       0.01392250
Ru       8.17273618       4.72358903      21.67121145  T      -0.00053112      -0.00329902       0.01241752
Ru       6.79921892       2.34836669      21.67272332  T      -0.00077556      -0.00857268       0.00752981
Ru       5.42590466       4.72367919      21.67119179  T      -0.00028298      -0.00335179       0.01227928
Ru       1.36000812       0.78776263      19.56367555  T       0.00110773       0.00168193       0.01403416
Ru       4.07955098       0.78778779      19.56368844  T      -0.00065057       0.00140828       0.01385653
Ru       2.71978061       3.14280987      19.56358361  T       0.00019549       0.00046265       0.01401202
Ru       5.44084951       3.14387751      19.57562466  T      -0.00008644      -0.00006675       0.01223590
Ru       6.79922223       0.79050055      19.56606642  T      -0.00000465      -0.00276664       0.01088031
Ru       4.08090833       5.49762302      19.56468711  T       0.00193505      -0.00021186       0.01312173
Ru       9.51749362       5.49767050      19.56466309  T      -0.00196685      -0.00089983       0.01383714
Ru       6.79920921       5.49662427      19.57509705  T       0.00026417      -0.00070344       0.01339043
Ru       8.15757879       3.14393841      19.57558579  T       0.00006812      -0.00000884       0.01276247
Ru       0.00000000       0.00000000      17.47074105  F      -0.00985787       0.00489957      -0.68089853
Ru       1.35980778       2.35525603      17.47074105  F      -0.03543779       0.02801124      -0.63293564
Ru       2.71961556       0.00000000      17.47074105  F       0.00053870      -0.03412351      -0.63304114
Ru       4.07942334       2.35525603      17.47074105  F       0.03645615       0.02799294      -0.63303512
Ru       5.43923120       0.00000000      17.47074105  F       0.01077897       0.00513123      -0.68084778
Ru       2.71961560       4.71051213      17.47074105  F       0.00046135       0.01563413      -0.68293144
Ru       8.15884680       4.71051213      17.47074105  F      -0.00628650       0.00177992      -0.60051017
Ru       6.79903898       2.35525603      17.47074105  F       0.00043639       0.01715673      -0.59938342
Ru       5.43923116       4.71051213      17.47074105  F       0.00724399       0.00155542      -0.60034675
Ru       1.35980778       0.78508534      15.28689842  F       0.01612092       0.00826087       0.60583181
Ru       4.07942334       0.78508534      15.28689842  F      -0.01612367       0.00826241       0.60593174
Ru       2.71961556       3.14034137      15.28689842  F      -0.00000768      -0.01904606       0.60509549
Ru       5.43923112       3.14034137      15.28689842  F       0.00334208       0.00033627       0.63198434
Ru       6.79903898       0.78508534      15.28689842  F      -0.00003577       0.01814646       0.60406654
Ru       4.07942338       5.49559747      15.28689842  F       0.01582306      -0.01032051       0.60297926
Ru       9.51865458       5.49559747      15.28689842  F      -0.01585024      -0.01028443       0.60304762
Ru       6.79903894       5.49559747      15.28689842  F      -0.00003245      -0.00502446       0.63194888
Ru       8.15884676       3.14034137      15.28689842  F      -0.00336659       0.00034914       0.63197441
H        6.79944394       3.94434157       0.87143161  T      -0.00034341      -0.02967062      -0.01155627
37
Lattice="8.15884676 0.0 0.0 4.07942338 7.06576816 0.0 0.0 0.0 21.83842631" Properties=species:S:1:pos:R:3:move_mask:L:1:forces:R:3 energy=-351.94756605 stress="0.034295286903240275 3.280512230527737e-06 1.0591897160206022e-05 3.280512230527737e-06 0.03425183470883412 0.00023217600679646618 1.0591897160206022e-05 0.00023217600679646618 0.00955686543619299" free_energy=-351.95289732 pbc="T T T"
Ru       8.15737266       0.00412874      21.64055685  T       0.00089209      -0.00424415       0.01151101
Ru       1.37073500       2.35290525      21.64523355  T       0.00020508      -0.00098741       0.01326501
Ru       2.71988917       0.01661692      21.64560807  T      -0.00015757      -0.00130801       0.01227891
Ru       4.06893310       2.35290793      21.64519533  T      -0.00334455      -0.00125233       0.01286223
Ru       5.44122306       0.00397782      21.64059222  T      -0.00176934      -0.00397317       0.01124220
Ru      10.87860861       4.71580814      21.64044198  T       0.00061513       0.00106547       0.00812593
Ru       8.17268070       4.72323984      21.67253878  T       0.00329154      -0.00072671       0.00929215
Ru       6.79913648       2.34745500      21.67353418  T       0.00005237      -0.01159237       0.00578758
Ru       5.42587097       4.72332435      21.67250537  T      -0.00366378      -0.00085834       0.00913886
Ru       1.36012569       0.78794620      19.56513523  T       0.00037869      -0.00542448      -0.00078529
Ru       4.07948225       0.78794048      19.56512803  T      -0.00078614      -0.00391831      -0.00069630
Ru       2.71980036       3.14285721      19.56503980  T      -0.00003274       0.00030421       0.00057230
Ru       5.44084102       3.14387171      19.57690658  T       0.00003707       0.00050167       0.00704788
Ru       6.79922092       0.79021820      19.56717603  T      -0.00026355      -0.00183468       0.00159539
Ru       4.08112009       5.49760175      19.56602973  T      -0.00187394      -0.00421237       0.00481559
Ru       9.51727986       5.49757342      19.56608236  T       0.00146867      -0.00329096       0.00306920
Ru       6.79923850       5.49654994      19.57650716  T      -0.00004859       0.00112522       0.00892040
Ru       8.15758659       3.14393820      19.57692558  T       0.00014373      -0.00052621       0.00708679
Ru       0.00000000       0.00000000      17.47074105  F      -0.00851891       0.00510209      -0.67202853
Ru       1.35980778       2.35525603      17.47074105  F      -0.03507345       0.02814722      -0.62404440
Ru       2.71961556       0.00000000      17.47074105  F       0.00055410      -0.03346107      -0.62342126
Ru       4.07942334       2.35525603      17.47074105  F       0.03608215       0.02808552      -0.62423679
Ru       5.43923120       0.00000000      17.47074105  F       0.00965977       0.00492278      -0.67189189
Ru       2.71961560       4.71051213      17.47074105  F       0.00041124       0.01621597      -0.67338142
Ru       8.15884680       4.71051213      17.47074105  F      -0.00673125       0.00217037      -0.59268756
Ru       6.79903898       2.35525603      17.47074105  F       0.00060108       0.01687763      -0.59157997
Ru       5.43923116       4.71051213      17.47074105  F       0.00786500       0.00214475      -0.59256436
Ru       1.35980778       0.78508534      15.28689842  F       0.01658320       0.00866265       0.60829031
Ru       4.07942334       0.78508534      15.28689842  F      -0.01645158       0.00864776       0.60834066