37
Lattice="8.15884676 0.0 0.0 4.07942338 7.06576816 0.0 0.0 0.0 21.83842631" Properties=species:S:1:pos:R:3:move_mask:L:1:forces:R:3 energy=-344.46685824 stress="0.04776232089305494 8.050173640381708e-07 1.3266202816882348e-05 8.050173640381708e-07 0.04776853667468021 0.0002637858301720639 1.3266202816882348e-05 0.0002637858301720639 0.014900287671205544" free_energy=-344.47491816 pbc="T T T"
Ru       0.00368580       0.00630033      21.61496702  T      -0.00624170      -0.01358735       0.04845482
Ru       1.36918417       2.35336113      21.60861858  T      -0.02134458       0.00762765       0.07403403
Ru       2.71991540       0.01486920      21.60848035  T      -0.00114596      -0.02162772       0.07270732
Ru       4.07063438       2.35333993      21.60859282  T       0.02140802       0.00688626       0.07410338
Ru       5.43605973       0.00633665      21.61480978  T       0.00447404      -0.01452212       0.04955524
Ru       2.71993841       4.70949897      21.61409610  T       0.00022811      -0.00173480       0.04434310
Ru       8.16389611       4.71844847      21.62911919  T      -0.00129679      -0.00491885       0.09465975
Ru       6.79929635       2.35814303      21.63114842  T      -0.00022423      -0.01153111       0.08679625
Ru       5.43481176       4.71843045      21.62915675  T       0.00081080      -0.00417772       0.09404872
Ru       1.35901878       0.78700674      19.56779253  T       0.00004407       0.00365924      -0.08577644
Ru       4.08062628       0.78704157      19.56766106  T      -0.00215878       0.00208487      -0.08546273
Ru       2.71986098       3.14347236      19.56770343  T      -0.00166365      -0.00236555      -0.08772379
Ru       5.43937720       3.14328631      19.57495029  T       0.00189158      -0.00060495      -0.09778905
Ru       6.79917519       0.78198891      19.56761258  T       0.00068742       0.01374716      -0.08682935
Ru       4.07251700       5.50224142      19.56540690  T       0.01756971      -0.00858004      -0.07714854
Ru       9.52593921       5.50229653      19.56536956  T      -0.01671825      -0.00965021      -0.07722625
Ru       6.79923247       5.49844950      19.57442661  T       0.00011539      -0.00296060      -0.09867803
Ru       8.15904563       3.14330963      19.57504791  T      -0.00140428      -0.00061705      -0.09922576
Ru       0.00000000       0.00000000      17.47074105  F       0.02270533       0.03034372      -0.98582649
Ru       1.35980778       2.35525603      17.47074105  F      -0.01215605       0.01421578      -0.93646095
Ru       2.71961556       0.00000000      17.47074105  F       0.00040526      -0.00150531      -0.93742855
Ru       4.07942334       2.35525603      17.47074105  F       0.01324460       0.01435443      -0.93724278
Ru       5.43923120       0.00000000      17.47074105  F      -0.02139986       0.03030302      -0.98647983
Ru       2.71961560       4.71051213      17.47074105  F       0.00064397      -0.02453121      -0.99111661
Ru       8.15884680       4.71051213      17.47074105  F       0.00122873       0.00926702      -0.91416738
Ru       6.79903898       2.35525603      17.47074105  F       0.00074193       0.01267345      -0.91436783
Ru       5.43923116       4.71051213      17.47074105  F       0.00000620       0.00941898      -0.91437502
Ru       1.35980778       0.78508534      15.28689842  F       0.01512921       0.00879577       0.96420819
Ru       4.07942334       0.78508534      15.28689842  F      -0.01510302       0.00880879       0.96389121
Ru       2.71961556       3.14034137      15.28689842  F       0.00002917      -0.01655341       0.96303079
Ru       5.43923112       3.14034137      15.28689842  F      -0.01157101      -0.00443768       0.99428646
Ru       6.79903898       0.78508534      15.28689842  F      -0.00007078       0.01399473       0.95383143
Ru       4.07942338       5.49559747      15.28689842  F       0.01168351      -0.00603697       0.94989136
Ru       9.51865458       5.49559747      15.28689842  F      -0.01174621      -0.00599328       0.94982516
Ru       6.79903894       5.49559747      15.28689842  F       0.00001771       0.01335712       0.99398608
Ru       8.15884676       3.14034137      15.28689842  F       0.01150951      -0.00438772       0.99454600
H        6.79945231       3.95197436       0.87864441  T      -0.00032914      -0.03921433      -0.05287394
37
Lattice="8.15884676 0.0 0.0 4.07942338 7.06576816 0.0 0.0 0.0 21.83842631" Properties=species:S:1:pos:R:3:move_mask:L:1:forces:R:3 energy=-344.46802324 stress="0.04784138559063913 7.567205664220862e-08 1.4079302935238537e-05 7.567205664220862e-08 0.047848042746823735 0.0002627950030813482 1.4079302935238537e-05 0.0002627950030813482 0.015032331147095465" free_energy=-344.47605565 pbc="T T T"
Ru       0.00362551       0.00616919      21.61543458  T      -0.00537790      -0.01208924       0.03537120
Ru       1.36897820       2.35343469      21.60933292  T      -0.01954955       0.00709721       0.05779203
Ru       2.71990434       0.01466055      21.60918180  T       0.00035157      -0.01996556       0.05986414
Ru       4.07084101       2.35340642      21.60930781  T       0.02027325       0.00705781       0.05782266
Ru       5.43610285       0.00619654      21.61528782  T       0.00405664      -0.01361893       0.03741667
Ru       2.71994057       4.70948222      21.61452391  T      -0.00028972      -0.00292641       0.03451007
Ru       8.16388354       4.71840099      21.63003247  T       0.00078939      -0.00209698       0.07953925
Ru       6.79929419       2.35803175      21.63198592  T       0.00005506      -0.01436792       0.06978439
Ru       5.43481967       4.71839018      21.63006414  T      -0.00265339      -0.00261904       0.07956065
Ru       1.35901927       0.78704207      19.56696486  T       0.00060614       0.00453918      -0.06799162
Ru       4.08060543       0.78706171      19.56683645  T      -0.00212062       0.00271387      -0.06572622
Ru       2.71984495       3.14344953      19.56685697  T      -0.00163372      -0.00434679      -0.06720332
Ru       5.43939544       3.14328045      19.57400666  T       0.00216667      -0.00030804      -0.07964705
Ru       6.79918184       0.78212154      19.56677486  T      -0.00002408       0.01250391      -0.06939253
Ru       4.07268658       5.50215868      19.56466243  T       0.01654287      -0.00898436      -0.06131865
Ru       9.52577791       5.50220340      19.56462443  T      -0.01596164      -0.00992186      -0.06133966
Ru       6.79923361       5.49842095      19.57347445  T       0.00008092      -0.00452472      -0.07864645
Ru       8.15903205       3.14330363      19.57409052  T      -0.00134284      -0.00077496      -0.08056783
Ru       0.00000000       0.00000000      17.47074105  F       0.02253738       0.03006764      -0.98923374
Ru       1.35980778       2.35525603      17.47074105  F      -0.01212008       0.01413656      -0.94068643
Ru       2.71961556       0.00000000      17.47074105  F       0.00031730      -0.00136161      -0.94137474
Ru       4.07942334       2.35525603      17.47074105  F       0.01308137       0.01427373      -0.94135532
Ru       5.43923120       0.00000000      17.47074105  F      -0.02134230       0.03003356      -0.98980918
Ru       2.71961560       4.71051213      17.47074105  F       0.00061983      -0.02430156      -0.99437971
Ru       8.15884680       4.71051213      17.47074105  F       0.00118662       0.00917061      -0.91845461
Ru       6.79903898       2.35525603      17.47074105  F       0.00067661       0.01258307      -0.91887683
Ru       5.43923116       4.71051213      17.47074105  F      -0.00005409       0.00930200      -0.91865474
Ru       1.35980778       0.78508534      15.28689842  F       0.01474360       0.00909619       0.96341417
Ru       4.07942334       0.78508534      15.28689842  F      -0.01484392       0.00912787       0.96318890
Ru       2.71961556       3.14034137      15.28689842  F      -0.00001464      -0.01682170       0.96255810
Ru       5.43923112       3.14034137      15.28689842  F      -0.01131577      -0.00492188       0.99278763
Ru       6.79903898       0.78508534      15.28689842  F      -0.00011005       0.01433129       0.95206088
Ru       4.07942338       5.49559747      15.28689842  F       0.01147793      -0.00601963       0.94976362
Ru       9.51865458       5.49559747      15.28689842  F      -0.01161986      -0.00597885       0.94979273
Ru       6.79903894       5.49559747      15.28689842  F      -0.00006090       0.01294630       0.99388533
Ru       8.15884676       3.14034137      15.28689842  F       0.01113576      -0.00489291       0.99304220
H        6.79944917       3.95159599       0.87813426  T      -0.00026385      -0.03813783      -0.04749595
37
Lattice="8.15884676 0.0 0.0 4.07942338 7.06576816 0.0 0.0 0.0 21.83842631" Properties=species:S:1:pos:R:3:move_mask:L:1:forces:R:3 energy=-344.46922528000005 stress="0.04787650166914731 -4.6065458103581386e-07 1.4682351305472252e-05 -4.6065458103581386e-07 0.04787678151969199 0.0002545823816829471 1.4682351305472252e-05 0.0002545823816829471 0.015367386017470466" free_energy=-344.47731755 pbc="T T T"
Ru       0.00336989       0.00559446      21.61711613  T      -0.00227275      -0.00810629      -0.01148596
Ru       1.36804875       2.35377215      21.61208041  T      -0.01109876       0.00113121      -0.00274045
Ru       2.71992103       0.01371126      21.61202800  T      -0.00021741      -0.01052208      -0.00086493
Ru       4.07180485       2.35374198      21.61205683  T       0.01111562       0.00200310      -0.00251881
Ru       5.43629573       0.00554903      21.61706678  T       0.00202588      -0.00848436      -0.01169541
Ru       2.71992682       4.70934310      21.61616463  T      -0.00109559      -0.00072776      -0.01064637
Ru       8.16392111       4.71830129      21.63381401  T       0.01163483       0.00004336       0.00806720
Ru       6.79929680       2.35734863      21.63530383  T      -0.00040857      -0.02442097       0.00142303
Ru       5.43469341       4.71826561      21.63384677  T      -0.01082526       0.00064184       0.00782009
Ru       1.35904807       0.78725785      19.56373233  T       0.00154660       0.00240586       0.01353125
Ru       4.08050459       0.78719073      19.56371158  T      -0.00143738       0.00282102       0.01413888
Ru       2.71976723       3.14324286      19.56366201  T       0.00018436      -0.00146424       0.01355197
Ru       5.43949844       3.14326582      19.57022009  T       0.00301355      -0.00139667       0.01177326
Ru       6.79918070       0.78271605      19.56347551  T       0.00064131      -0.00238345       0.00555747
Ru       4.07347301       5.50173148      19.56174700  T       0.00882766      -0.00704375       0.00679230
Ru       9.52501905       5.50173169      19.56170813  T      -0.01038401      -0.00658386       0.00727508
Ru       6.79923753       5.49820587      19.56973528  T      -0.00078051      -0.00662420       0.01237134
Ru       8.15896820       3.14326681      19.57026006  T      -0.00424743      -0.00158658       0.01142406
Ru       0.00000000       0.00000000      17.47074105  F       0.02226158       0.02905517      -1.00226151
Ru       1.35980778       2.35525603      17.47074105  F      -0.01143170       0.01404442      -0.95849273
Ru       2.71961556       0.00000000      17.47074105  F       0.00028996      -0.00043650      -0.95717319
Ru       4.07942334       2.35525603      17.47074105  F       0.01240800       0.01409620      -0.95843408
Ru       5.43923120       0.00000000      17.47074105  F      -0.02124529       0.02915299      -1.00252921
Ru       2.71961560       4.71051213      17.47074105  F       0.00081360      -0.02244619      -1.00678613
Ru       8.15884680       4.71051213      17.47074105  F       0.00127274       0.01004253      -0.93580347
Ru       6.79903898       2.35525603      17.47074105  F       0.00053726       0.01249691      -0.93693640
Ru       5.43923116       4.71051213      17.47074105  F      -0.00023368       0.01011748      -0.93577989
Ru       1.35980778       0.78508534      15.28689842  F       0.01485773       0.00891986       0.95707920
Ru       4.07942334       0.78508534      15.28689842  F      -0.01506394       0.00910908       0.95705432
Ru       2.71961556       3.14034137      15.28689842  F       0.00008737      -0.01634439       0.95658178
Ru       5.43923112       3.14034137      15.28689842  F      -0.01098379      -0.00413674       0.98461746
Ru       6.79903898       0.78508534      15.28689842  F      -0.00002543       0.01411407       0.94414572
Ru       4.07942338       5.49559747      15.28689842  F       0.01156731      -0.00541109       0.94147955
Ru       9.51865458       5.49559747      15.28689842  F      -0.01155304      -0.00538390       0.94161538
Ru       6.79903894       5.49559747      15.28689842  F      -0.00022100       0.01328334       0.98451411
Ru       8.15884676       3.14034137      15.28689842  F       0.01068425      -0.00423624       0.98485890
H        6.79943660       3.94978277       0.87587617  T      -0.00024404      -0.03573920      -0.03152383
37
Lattice="8.15884676 0.0 0.0 4.07942338 7.06576816 0.0 0.0 0.0 21.83842631" Properties=species:S:1:pos:R:3:move_mask:L:1:forces:R:3 energy=-344.46997476 stress="0.047996418435816944 -1.0130655877312377e-06 1.4338824884692764e-05 -1.0130655877312377e-06 0.04799973745191726 0.0002556679798482302 1.4338824884692764e-05 0.0002556679798482302 0.015466718430597636" free_energy=-344.47807795 pbc="T T T"
Ru       0.00336740       0.00556246      21.61689928  T      -0.00352019      -0.00760185      -0.00660789
Ru       1.36801485       2.35375893      21.61186749  T      -0.01050308       0.00237863       0.00255722
Ru       2.71991805       0.01368378      21.61182468  T      -0.00006158      -0.00959106       0.00118400
Ru       4.07183655       2.35373654      21.61184587  T       0.01069545       0.00238480       0.00175910
Ru       5.43630034       0.00551872      21.61684141  T       0.00298786      -0.00792968      -0.00636879
Ru       2.71991813       4.70934628      21.61595804  T      -0.00102024      -0.00135768      -0.00482542
Ru       8.16402110       4.71830857      21.63362533  T       0.01053383      -0.00144057       0.01265684
Ru       6.79929305       2.35718032      21.63508829  T      -0.00045882      -0.02276432       0.00913901
Ru       5.43460664       4.71827981      21.63365590  T      -0.00975151      -0.00095938       0.01289734
Ru       1.35905965       0.78726421      19.56407367  T       0.00135030       0.00192679       0.00570343
Ru       4.08049888       0.78720670      19.56405095  T      -0.00167150       0.00253094       0.00481645
Ru       2.71977421       3.14324420      19.56400094  T       0.00055369      -0.00227799       0.00669205
Ru       5.43951794       3.14325452      19.57058392  T       0.00294851      -0.00181624       0.00676845
Ru       6.79918641       0.78265415      19.56375133  T       0.00053454      -0.00192030       0.00074690
Ru       4.07349679       5.50169876      19.56200731  T       0.00827916      -0.00679566       0.00045794
Ru       9.52497964       5.50170611      19.56197259  T      -0.01041848      -0.00632664       0.00005970
Ru       6.79923035       5.49816221      19.57010129  T      -0.00128247      -0.00648650       0.00753784
Ru       8.15893516       3.14325537      19.57062410  T      -0.00333424      -0.00218370       0.00597828
Ru       0.00000000       0.00000000      17.47074105  F       0.02260567       0.02952299      -1.00357592
Ru       1.35980778       2.35525603      17.47074105  F      -0.01142167       0.01403093      -0.95883252
Ru       2.71961556       0.00000000      17.47074105  F       0.00032164      -0.00016907      -0.95802386
Ru       4.07942334       2.35525603      17.47074105  F       0.01233111       0.01402876      -0.95886735
Ru       5.43923120       0.00000000      17.47074105  F      -0.02149430       0.02951337      -1.00381040
Ru       2.71961560       4.71051213      17.47074105  F       0.00071051      -0.02285251      -1.00803947
Ru       8.15884680       4.71051213      17.47074105  F       0.00096552       0.00962845      -0.93722903
Ru       6.79903898       2.35525603      17.47074105  F       0.00065754       0.01253054      -0.93787659
Ru       5.43923116       4.71051213      17.47074105  F       0.00019002       0.00975842      -0.93732655
Ru       1.35980778       0.78508534      15.28689842  F       0.01483605       0.00886698       0.95824738
Ru       4.07942334       0.78508534      15.28689842  F      -0.01508905       0.00882236       0.95845479
Ru       2.71961556       3.14034137      15.28689842  F      -0.00014296      -0.01672965       0.95914203
Ru       5.43923112       3.14034137      15.28689842  F      -0.01030996      -0.00423683       0.98727249
Ru       6.79903898       0.78508534      15.28689842  F       0.00011910       0.01446103       0.94716344
Ru       4.07942338       5.49559747      15.28689842  F       0.01200838      -0.00480538       0.94523980
Ru       9.51865458       5.49559747      15.28689842  F      -0.01207244      -0.00498906       0.94505703
Ru       6.79903894       5.49559747      15.28689842  F      -0.00005793       0.01348368       0.98631132
Ru       8.15884676       3.14034137      15.28689842  F       0.01034044      -0.00433937       0.98694458
H        6.79943534       3.94959235       0.87575343  T      -0.00035892      -0.03629521      -0.03140362
37
Lattice="8.15884676 0.0 0.0 4.07942338 7.06576816 0.0 0.0 0.0 21.83842631" Properties=species:S:1:pos:R:3:move_mask:L:1:forces:R:3 energy=-344.4696798 stress="0.04791698299259068 -2.4582995088477577e-06 1.5187439189975229e-05 -2.4582995088477577e-06 0.047919902764318255 0.0002509834463813442 1.5187439189975229e-05 0.0002509834463813442 0.015364018823161199" free_energy=-344.47777118 pbc="T T T"
Ru       0.00332930       0.00548134      21.61678703  T      -0.00280807      -0.00762017      -0.00596155
Ru       1.36790535       2.35378155      21.61184587  T      -0.00980417       0.00150474       0.00341296
Ru       2.71991695       0.01358592      21.61178363  T       0.00004248      -0.00937287       0.00479419
Ru       4.07194771       2.35375908      21.61181398  T       0.00991670       0.00150913       0.00189115
Ru       5.43633314       0.00543506      21.61673003  T       0.00204763      -0.00815146      -0.00468290
Ru       2.71990597       4.70933229      21.61586829  T      -0.00102530      -0.00136692      -0.00496486
Ru       8.16414838       4.71829260      21.63370613  T       0.00953461      -0.00156047       0.01194212
Ru       6.79928738       2.35691698      21.63513611  T      -0.00021346      -0.02002875       0.00837098
Ru       5.43449071       4.71827020      21.63373954  T      -0.00878702      -0.00103363       0.01242924
Ru       1.35907552       0.78728336      19.56420513  T       0.00164938       0.00150286       0.00364886
Ru       4.08048040       0.78723489      19.56416888  T      -0.00188545       0.00185237       0.00288070
Ru       2.71978261       3.14322032      19.56414377  T      -0.00011817      -0.00122108       0.00206862
Ru       5.43955176       3.14323254      19.57073985  T       0.00365878      -0.00197185       0.00420574
Ru       6.79919298       0.78261918      19.56382427  T      -0.00014854      -0.00237960      -0.00282995
Ru       4.07358201       5.50162450      19.56206890  T       0.00776647      -0.00679710      -0.00123795
Ru       9.52486771       5.50163842      19.56202915  T      -0.00961352      -0.00628834      -0.00165887
Ru       6.79921456       5.49808752      19.57026552  T      -0.00121261      -0.00614130       0.00515431
Ru       8.15889600       3.14322936      19.57077086  T      -0.00324329      -0.00224304       0.00390827
Ru       0.00000000       0.00000000      17.47074105  F       0.02279782       0.02931444      -1.00128496
Ru       1.35980778       2.35525603      17.47074105  F      -0.01157825       0.01428875      -0.95662247
Ru       2.71961556       0.00000000      17.47074105  F       0.00034778      -0.00054001      -0.95560393
Ru       4.07942334       2.35525603      17.47074105  F       0.01261457       0.01432661      -0.95664116
Ru       5.43923120       0.00000000      17.47074105  F      -0.02166054       0.02936866      -1.00158040
Ru       2.71961560       4.71051213      17.47074105  F       0.00070740      -0.02300468      -1.00568088
Ru       8.15884680       4.71051213      17.47074105  F       0.00052292       0.00924043      -0.93499489
Ru       6.79903898       2.35525603      17.47074105  F       0.00061534       0.01272134      -0.93569138
Ru       5.43923116       4.71051213      17.47074105  F       0.00055423       0.00931590      -0.93506877
Ru       1.35980778       0.78508534      15.28689842  F       0.01492045       0.00923184       0.95886758
Ru       4.07942334       0.78508534      15.28689842  F      -0.01502891       0.00924522       0.95878646
Ru       2.71961556       3.14034137      15.28689842  F      -0.00002009      -0.01653715       0.95820082
Ru       5.43923112       3.14034137      15.28689842  F      -0.01047693      -0.00421003       0.98628455
Ru       6.79903898       0.78508534      15.28689842  F       0.00002237       0.01476435       0.94655294
Ru       4.07942338       5.49559747      15.28689842  F       0.01192027      -0.00542337       0.94410965
Ru       9.51865458       5.49559747      15.28689842  F      -0.01193603      -0.00545925       0.94411949
Ru       6.79903894       5.49559747      15.28689842  F      -0.00005768       0.01309304       0.98661688
Ru       8.15884676       3.14034137      15.28689842  F       0.01043272      -0.00426227       0.98642466
H        6.79943114       3.94918600       0.87541559  T      -0.00045391      -0.03566635      -0.03016524
37
Lattice="8.15884676 0.0 0.0 4.07942338 7.06576816 0.0 0.0 0.0 21.83842631" Properties=species:S:1:pos:R:3:move_mask:L:1:forces:R:3 energy=-344.46998089 stress="0.04794980479220834 -2.133017019243226e-06 1.3517342419580513e-05 -2.133017019243226e-06 0.04795047690287706 0.0002398070131669718 1.3517342419580513e-05 0.0002398070131669718 0.015419273174554616" free_energy=-344.47806323 pbc="T T T"
Ru       0.00321202       0.00516543      21.61651187  T      -0.00146601      -0.00743171      -0.00225724
Ru       1.36750010       2.35384273      21.61195462  T      -0.00578442       0.00018672       0.00410449
Ru       2.71991838       0.01320006      21.61194480  T       0.00008416      -0.00693212       0.00355218
Ru       4.07235749       2.35382034      21.61185941  T       0.00597826      -0.00023430       0.00484872
Ru       5.43641934       0.00509781      21.61650641  T      -0.00003614      -0.00721509      -0.00224942
Ru       2.71986261       4.70927597      21.61563767  T      -0.00092546      -0.00300991      -0.00206709
Ru       8.16455416       4.71822767      21.63416627  T       0.00507397      -0.00289914       0.01142923
Ru       6.79927787       2.35607128      21.63545102  T       0.00013978      -0.01579680       0.00848496
Ru       5.43411785       4.71822781      21.63421999  T      -0.00684393      -0.00320371       0.01087014
Ru       1.35914463       0.78734498      19.56440364  T       0.00177523      -0.00036099      -0.00101480
Ru       4.08040203       0.78731297      19.56433332  T      -0.00167820       0.00022333       0.00027824
Ru       2.71977976       3.14316931      19.56427938  T      -0.00015305      -0.00196274      -0.00007887
Ru       5.43970454       3.14314924      19.57097068  T       0.00138853      -0.00101070       0.00228429
Ru       6.79918776       0.78251135      19.56375177  T       0.00024243      -0.00373326      -0.00395951
Ru       4.07390237       5.50134152      19.56205558  T       0.00460068      -0.00597393      -0.00303330
Ru       9.52446804       5.50137748      19.56199792  T      -0.00465354      -0.00571615      -0.00166978
Ru       6.79916283       5.49782906      19.57053566  T      -0.00056008      -0.00385232       0.00441572
Ru       8.15875913       3.14313461      19.57098880  T      -0.00250623      -0.00269912       0.00220737
Ru       0.00000000       0.00000000      17.47074105  F       0.02372839       0.02924883      -1.00120721
Ru       1.35980778       2.35525603      17.47074105  F      -0.01160217       0.01421637      -0.95608886
Ru       2.71961556       0.00000000      17.47074105  F       0.00029009      -0.00084663      -0.95457914
Ru       4.07942334       2.35525603      17.47074105  F       0.01276616       0.01442471      -0.95625227
Ru       5.43923120       0.00000000      17.47074105  F      -0.02238360       0.02934079      -1.00154234
Ru       2.71961560       4.71051213      17.47074105  F       0.00068237      -0.02300982      -1.00541449
Ru       8.15884680       4.71051213      17.47074105  F      -0.00081544       0.00850814      -0.93589982
Ru       6.79903898       2.35525603      17.47074105  F       0.00075812       0.01250020      -0.93638084
Ru       5.43923116       4.71051213      17.47074105  F       0.00172139       0.00865142      -0.93603693
Ru       1.35980778       0.78508534      15.28689842  F       0.01470795       0.00900655       0.95833876
Ru       4.07942334       0.78508534      15.28689842  F      -0.01482962       0.00902019       0.95861137
Ru       2.71961556       3.14034137      15.28689842  F      -0.00002742      -0.01654686       0.95949283
Ru       5.43923112       3.14034137      15.28689842  F      -0.00989363      -0.00425761       0.98714326
Ru       6.79903898       0.78508534      15.28689842  F       0.00027362       0.01483121       0.94637751
Ru       4.07942338       5.49559747      15.28689842  F       0.01228918      -0.00449505       0.94476936
Ru       9.51865458       5.49559747      15.28689842  F      -0.01208467      -0.00467931       0.94488157
Ru       6.79903894       5.49559747      15.28689842  F      -0.00007168       0.01365631       0.98647496
Ru       8.15884676       3.14034137      15.28689842  F       0.01010306      -0.00446644       0.98701330
H        6.79941217       3.94769420       0.87416207  T      -0.00028807      -0.03348104      -0.02584633
37
Lattice="8.15884676 0.0 0.0 4.07942338 7.06576816 0.0 0.0 0.0 21.83842631" Properties=species:S:1:pos:R:3:move_mask:L:1:forces:R:3 energy=-344.47019216 stress="0.047956437369330016 -3.080808904535976e-07 1.1184097787578953e-05 -3.080808904535976e-07 0.047954790091516986 0.00021563455958275836 1.1184097787578953e-05 0.00021563455958275836 0.01543951000711045" free_energy=-344.4782645 pbc="T T T"
Ru       0.00303191       0.00459402      21.61610960  T      -0.00016445      -0.00502876       0.00255609
Ru       1.36686135       2.35392159      21.61217825  T       0.00038883      -0.00399454       0.00274919
Ru       2.71992213       0.01255679      21.61221647  T      -0.00130338       0.00022444       0.00384820
Ru       4.07300653       2.35388873      21.61202363  T      -0.00148058      -0.00344066       0.00452529
Ru       5.43652401       0.00450612      21.61616638  T      -0.00048856      -0.00383661       0.00135725
Ru       2.71978636       4.70913219      21.61529503  T      -0.00034679      -0.00386606      -0.00010808
Ru       8.16518002       4.71807575      21.63500050  T       0.00013862      -0.00336299       0.00298213
Ru       6.79926955       2.35463862      21.63603586  T      -0.00033786      -0.01226834      -0.00176345
Ru       5.43348868       4.71809617      21.63506514  T      -0.00203244      -0.00307444       0.00247782
Ru       1.35927370       0.78741097      19.56463841  T       0.00115557      -0.00296228      -0.00348820
Ru       4.08026431       0.78741429      19.56455739  T      -0.00079588      -0.00338342      -0.00212381
Ru       2.71977319       3.14305774      19.56446108  T      -0.00038579      -0.00248342      -0.00041450
Ru       5.43992617       3.14302170      19.57133014  T       0.00066856      -0.00261875      -0.00128266
Ru       6.79918784       0.78228299      19.56358099  T      -0.00068020      -0.00477117      -0.00550008
Ru       4.07440765       5.50084635      19.56197783  T       0.00085193      -0.00447863      -0.00162296
Ru       9.52386360       5.50091616      19.56193219  T      -0.00039978      -0.00418451      -0.00086514
Ru       6.79908516       5.49741585      19.57099667  T       0.00118944       0.00007821       0.00202183
Ru       8.15852856       3.14295090      19.57133036  T      -0.00122718      -0.00201753      -0.00104347
Ru       0.00000000       0.00000000      17.47074105  F       0.02515711       0.02807742      -0.99925681
Ru       1.35980778       2.35525603      17.47074105  F      -0.01196149       0.01433342      -0.95409795
Ru       2.71961556       0.00000000      17.47074105  F       0.00035295      -0.00232446      -0.95158929
Ru       4.07942334       2.35525603      17.47074105  F       0.01322080       0.01463609      -0.95439201
Ru       5.43923120       0.00000000      17.47074105  F      -0.02388618       0.02823753      -0.99949254
Ru       2.71961560       4.71051213      17.47074105  F       0.00047055      -0.02385648      -1.00309643
Ru       8.15884680       4.71051213      17.47074105  F      -0.00301455       0.00655443      -0.93442262
Ru       6.79903898       2.35525603      17.47074105  F       0.00070481       0.01242605      -0.93466230
Ru       5.43923116       4.71051213      17.47074105  F       0.00362636       0.00667834      -0.93476849
Ru       1.35980778       0.78508534      15.28689842  F       0.01497533       0.00931525       0.96060400
Ru       4.07942334       0.78508534      15.28689842  F      -0.01491170       0.00933768       0.96046143