37
Lattice="8.15884676 0.0 0.0 4.07942338 7.06576816 0.0 0.0 0.0 21.83842631" Properties=species:S:1:pos:R:3:move_mask:L:1:forces:R:3 energy=-347.7058007 stress="0.04220655264975391 -1.2914181702182532e-06 1.5050856245773526e-05 -1.2914181702182532e-06 0.04223455574218301 0.0002652341536401978 1.5050856245773526e-05 0.0002652341536401978 0.014079818995696084" free_energy=-347.69937553 pbc="T T T"
Ru       8.15945223       0.00450796      21.63673621  T       0.00770947       0.00430862       0.02523740
Ru       1.37223860       2.35187110      21.63569387  T      -0.01183714       0.00591589       0.01918292
Ru       2.71999030       0.01846017      21.63572400  T      -0.00101677      -0.01365191       0.01893514
Ru       4.06771825       2.35182221      21.63574104  T       0.01124247       0.00650352       0.01852939
Ru       5.43909915       0.00453771      21.63678622  T      -0.00749782       0.00287229       0.02617049
Ru      10.87875534       4.71311728      21.63603258  T       0.00055759      -0.00898532       0.02590795
Ru       8.16760389       4.72071319      21.66157852  T      -0.01595625      -0.01076440      -0.00751379
Ru       6.79931552       2.35489744      21.66394951  T       0.00068191       0.00280082      -0.02046750
Ru       5.43117903       4.72060516      21.66157196  T       0.01432698      -0.01035109      -0.00759552
Ru       1.35914124       0.78699204      19.57524489  T      -0.00400056      -0.00292780      -0.08583873
Ru       4.08045988       0.78699232      19.57525210  T       0.00331686      -0.00243573      -0.08575064
Ru       2.71981876       3.14349122      19.57523245  T       0.00017321       0.00355873      -0.08535763
Ru       5.43986412       3.14322343      19.58574284  T      -0.00735764      -0.00560837      -0.05529009
Ru       6.79919249       0.78838908      19.57647615  T       0.00036593      -0.01118120      -0.07539904
Ru       4.07799766       5.49908719      19.57408375  T      -0.00645890       0.00272328      -0.07630771
Ru       9.52046601       5.49911382      19.57405754  T       0.00590308       0.00273479      -0.07625646
Ru       6.79924254       5.49789010      19.58522309  T      -0.00004827       0.00624705      -0.05317128
Ru       8.15857833       3.14324696      19.58574940  T       0.00782766      -0.00588224      -0.05503969
Ru       0.00000000       0.00000000      17.47074105  F       0.01121256       0.02205620      -0.81896207
Ru       1.35980778       2.35525603      17.47074105  F      -0.02203726       0.01920132      -0.76306269
Ru       2.71961556       0.00000000      17.47074105  F       0.00048829      -0.01596360      -0.76250759
Ru       4.07942334       2.35525603      17.47074105  F       0.02300370       0.01914531      -0.76321401
Ru       5.43923120       0.00000000      17.47074105  F      -0.01042142       0.02216048      -0.81912320
Ru       2.71961560       4.71051213      17.47074105  F       0.00055138      -0.01120651      -0.82398386
Ru       8.15884680       4.71051213      17.47074105  F      -0.00280024       0.00445243      -0.73758362
Ru       6.79903898       2.35525603      17.47074105  F       0.00041612       0.01459389      -0.73760729
Ru       5.43923116       4.71051213      17.47074105  F       0.00379867       0.00437430      -0.73755147
Ru       1.35980778       0.78508534      15.28689842  F       0.02365488       0.01289060       0.82034154
Ru       4.07942334       0.78508534      15.28689842  F      -0.02387344       0.01297160       0.82034947
Ru       2.71961556       3.14034137      15.28689842  F      -0.00003974      -0.02742298       0.81977234
Ru       5.43923112       3.14034137      15.28689842  F       0.00292397       0.00143546       0.85497757
Ru       6.79903898       0.78508534      15.28689842  F      -0.00018492       0.01988325       0.83089237
Ru       4.07942338       5.49559747      15.28689842  F       0.01658215      -0.01016949       0.82878166
Ru       9.51865458       5.49559747      15.28689842  F      -0.01679339      -0.01008476       0.82878429
Ru       6.79903894       5.49559747      15.28689842  F      -0.00017167      -0.00506371       0.85541480
Ru       8.15884676       3.14034137      15.28689842  F      -0.00330909       0.00145201       0.85504478
H        6.79965722       3.95106493       0.88552329  T      -0.00093237      -0.04058273      -0.00073824
37
Lattice="8.15884676 0.0 0.0 4.07942338 7.06576816 0.0 0.0 0.0 21.83842631" Properties=species:S:1:pos:R:3:move_mask:L:1:forces:R:3 energy=-347.70670649999994 stress="0.042267660201024446 -7.184351494439183e-07 1.4732670352045124e-05 -7.184351494439183e-07 0.042295085579368855 0.00026367134841167694 1.4732670352045124e-05 0.00026367134841167694 0.01420567966385345" free_energy=-347.7002806 pbc="T T T"
Ru       8.15952660       0.00454958      21.63697971  T       0.00729136       0.00407373       0.01845527
Ru       1.37212433       2.35192812      21.63587906  T      -0.01099752       0.00551455       0.01307628
Ru       2.71998046       0.01832839      21.63590657  T      -0.00077210      -0.01320110       0.01284254
Ru       4.06782676       2.35188495      21.63591967  T       0.01028921       0.00621077       0.01264242
Ru       5.43902678       0.00456540      21.63703868  T      -0.00622212       0.00315533       0.01815712
Ru      10.87876077       4.71303058      21.63628263  T       0.00051502      -0.00875033       0.01964593
Ru       8.16744994       4.72060932      21.66150601  T      -0.01383810      -0.00983146      -0.01051373
Ru       6.79932205       2.35492443      21.66375209  T       0.00064126       0.00170178      -0.02180939
Ru       5.43131728       4.72050532      21.66149881  T       0.01299509      -0.00963728      -0.01035076
Ru       1.35910265       0.78696378      19.57441656  T      -0.00259611      -0.00265944      -0.07398324
Ru       4.08049186       0.78696887      19.57442486  T       0.00209425      -0.00285468      -0.07386372
Ru       2.71982039       3.14352556      19.57440892  T       0.00007519       0.00317837      -0.07449417
Ru       5.43979314       3.14316931      19.58520955  T      -0.00724429      -0.00443796      -0.04684590
Ru       6.79919596       0.78828119      19.57574849  T      -0.00030850      -0.01178285      -0.06595918
Ru       4.07793533       5.49911347      19.57334735  T      -0.00596647       0.00017323      -0.06416139
Ru       9.52052296       5.49914025      19.57332158  T       0.00554434       0.00042553      -0.06377042
Ru       6.79924209       5.49795037      19.58470989  T      -0.00050056       0.00535680      -0.04545073
Ru       8.15865384       3.14319022      19.58521850  T       0.00715638      -0.00495963      -0.04789064
Ru       0.00000000       0.00000000      17.47074105  F       0.01115961       0.02208151      -0.82367530
Ru       1.35980778       2.35525603      17.47074105  F      -0.02249320       0.01972291      -0.76731072
Ru       2.71961556       0.00000000      17.47074105  F       0.00041424      -0.01646411      -0.76691091
Ru       4.07942334       2.35525603      17.47074105  F       0.02340042       0.01971630      -0.76744092
Ru       5.43923120       0.00000000      17.47074105  F      -0.01033979       0.02218513      -0.82379824
Ru       2.71961560       4.71051213      17.47074105  F       0.00055607      -0.01087219      -0.82852970
Ru       8.15884680       4.71051213      17.47074105  F      -0.00330817       0.00443030      -0.74060269
Ru       6.79903898       2.35525603      17.47074105  F       0.00046069       0.01522491      -0.74101722
Ru       5.43923116       4.71051213      17.47074105  F       0.00424478       0.00443514      -0.74063349
Ru       1.35980778       0.78508534      15.28689842  F       0.02398897       0.01335434       0.81855669
Ru       4.07942334       0.78508534      15.28689842  F      -0.02430983       0.01335907       0.81859147
Ru       2.71961556       3.14034137      15.28689842  F      -0.00015681      -0.02762453       0.81803241
Ru       5.43923112       3.14034137      15.28689842  F       0.00236592       0.00135520       0.85458129
Ru       6.79903898       0.78508534      15.28689842  F      -0.00012589       0.02000991       0.82986116
Ru       4.07942338       5.49559747      15.28689842  F       0.01649140      -0.00991395       0.82794816
Ru       9.51865458       5.49559747      15.28689842  F      -0.01675419      -0.00992546       0.82794073
Ru       6.79903894       5.49559747      15.28689842  F      -0.00016718      -0.00420527       0.85482672
Ru       8.15884676       3.14034137      15.28689842  F      -0.00267740       0.00133577       0.85450714
H        6.79964816       3.95067334       0.88551608  T      -0.00090600      -0.03988029      -0.00065288
37
Lattice="8.15884676 0.0 0.0 4.07942338 7.06576816 0.0 0.0 0.0 21.83842631" Properties=species:S:1:pos:R:3:move_mask:L:1:forces:R:3 energy=-347.70775612 stress="0.04230255831979246 -9.47067870234148e-07 1.2498859201928007e-05 -9.47067870234148e-07 0.04231613023796783 0.0002514233853935912 1.2498859201928007e-05 0.0002514233853935912 0.014174892402724045" free_energy=-347.70120962 pbc="T T T"
Ru       8.15995538       0.00478918      21.63806508  T       0.00377733       0.00079913      -0.02125294
Ru       1.37147758       2.35225244      21.63664799  T      -0.00355399       0.00069696      -0.02479317
Ru       2.71993514       0.01755207      21.63666196  T       0.00005356      -0.00571047      -0.02303537
Ru       4.06843190       2.35225025      21.63666327  T       0.00242652       0.00042953      -0.02426346
Ru       5.43866086       0.00475095      21.63810657  T      -0.00512335       0.00180568      -0.02135738
Ru      10.87879108       4.71251598      21.63743788  T      -0.00063981      -0.00247594      -0.02484999
Ru       8.16663613       4.72003113      21.66088755  T      -0.00390570      -0.00576997      -0.03022670
Ru       6.79935979       2.35502456      21.66246930  T      -0.00067883      -0.00508337      -0.03600496
Ru       5.43208152       4.71993850      21.66088995  T       0.00322830      -0.00560076      -0.02984636
Ru       1.35894992       0.78680734      19.57006569  T      -0.00089947      -0.00148428       0.00098986
Ru       4.08061506       0.78680098      19.57008076  T      -0.00002423      -0.00311751       0.00108847
Ru       2.71982487       3.14371252      19.57002791  T      -0.00067225      -0.00307365       0.00025125
Ru       5.43936709       3.14290830      19.58245441  T      -0.00411513      -0.00224593      -0.01519298
Ru       6.79917788       0.78758825      19.57186955  T       0.00036841      -0.01538309      -0.01196572
Ru       4.07758442       5.49912365      19.56957411  T      -0.00292832       0.00128591      -0.00207483
Ru       9.52084907       5.49916526      19.56957127  T       0.00328332       0.00006318      -0.00212196
Ru       6.79921260       5.49826544      19.58203708  T       0.00028063       0.00432985      -0.01514223
Ru       8.15907468       3.14289855      19.58240200  T       0.00484941      -0.00207808      -0.01453139
Ru       0.00000000       0.00000000      17.47074105  F       0.01044590       0.02091044      -0.84231089
Ru       1.35980778       2.35525603      17.47074105  F      -0.02465069       0.02113004      -0.78360508
Ru       2.71961556       0.00000000      17.47074105  F       0.00049635      -0.01958139      -0.78287095
Ru       4.07942334       2.35525603      17.47074105  F       0.02592455       0.02116100      -0.78374124
Ru       5.43923120       0.00000000      17.47074105  F      -0.00947062       0.02094958      -0.84247363
Ru       2.71961560       4.71051213      17.47074105  F       0.00059522      -0.00950594      -0.84743784
Ru       8.15884680       4.71051213      17.47074105  F      -0.00471288       0.00385240      -0.75393981
Ru       6.79903898       2.35525603      17.47074105  F       0.00048809       0.01650267      -0.75440514
Ru       5.43923116       4.71051213      17.47074105  F       0.00587104       0.00374582      -0.75401411
Ru       1.35980778       0.78508534      15.28689842  F       0.02370836       0.01321260       0.81048221
Ru       4.07942334       0.78508534      15.28689842  F      -0.02377229       0.01321999       0.81056254
Ru       2.71961556       3.14034137      15.28689842  F      -0.00002201      -0.02704679       0.81024482
Ru       5.43923112       3.14034137      15.28689842  F       0.00213067       0.00137658       0.84828048
Ru       6.79903898       0.78508534      15.28689842  F      -0.00001194       0.02006745       0.82336309
Ru       4.07942338       5.49559747      15.28689842  F       0.01672732      -0.00988058       0.82126184
Ru       9.51865458       5.49559747      15.28689842  F      -0.01675165      -0.00988407       0.82125050
Ru       6.79903894       5.49559747      15.28689842  F      -0.00002002      -0.00363592       0.84861038
Ru       8.15884676       3.14034137      15.28689842  F      -0.00217011       0.00136376       0.84822215
H        6.79959488       3.94832793       0.88547765  T      -0.00053170      -0.03534478      -0.00314947
37
Lattice="8.15884676 0.0 0.0 4.07942338 7.06576816 0.0 0.0 0.0 21.83842631" Properties=species:S:1:pos:R:3:move_mask:L:1:forces:R:3 energy=-347.707778 stress="0.042286073932455176 -4.495634193191193e-07 1.3496146254589014e-05 -4.495634193191193e-07 0.042300820515131066 0.0002494756163652042 1.3496146254589014e-05 0.0002494756163652042 0.014119306021769657" free_energy=-347.70125141 pbc="T T T"
Ru       8.15994747       0.00477349      21.63778118  T       0.00347276       0.00048125      -0.01784939
Ru       1.37150785       2.35222799      21.63636343  T      -0.00359184       0.00161106      -0.02043150
Ru       2.71993983       0.01757603      21.63639379  T      -0.00022611      -0.00578447      -0.01959127
Ru       4.06839588       2.35221966      21.63638571  T       0.00277309       0.00137098      -0.02100449
Ru       5.43865131       0.00474897      21.63782333  T      -0.00471602       0.00141794      -0.01792853
Ru      10.87878276       4.71254311      21.63711664  T      -0.00030682      -0.00357557      -0.01831416
Ru       8.16667909       4.72003601      21.66068685  T      -0.00503145      -0.00690216      -0.02691553
Ru       6.79935040       2.35497156      21.66228149  T      -0.00089036      -0.00319584      -0.03313151
Ru       5.43203742       4.71994380      21.66069144  T       0.00484224      -0.00627997      -0.02613904
Ru       1.35895661       0.78680932      19.57048259  T      -0.00065343      -0.00080109      -0.00483826
Ru       4.08060327       0.78679003      19.57049809  T       0.00043353      -0.00218193      -0.00523379
Ru       2.71981871       3.14366864      19.57044131  T       0.00004464      -0.00303809      -0.00538653
Ru       5.43937186       3.14291360      19.58258304  T      -0.00372212      -0.00228843      -0.01746463
Ru       6.79918270       0.78752155      19.57213117  T      -0.00049098      -0.01358927      -0.01692271
Ru       4.07759229       5.49913375      19.56991064  T      -0.00364292       0.00017092      -0.00687555
Ru       9.52084658       5.49916350      19.56990518  T       0.00211958      -0.00009254      -0.00644421
Ru       6.79921782       5.49827293      19.58215829  T       0.00025728       0.00374754      -0.01726625
Ru       8.15907672       3.14290815      19.58254199  T       0.00442816      -0.00216587      -0.01687374
Ru       0.00000000       0.00000000      17.47074105  F       0.01087685       0.02084138      -0.84171016
Ru       1.35980778       2.35525603      17.47074105  F      -0.02421494       0.02085785      -0.78306341
Ru       2.71961556       0.00000000      17.47074105  F       0.00050119      -0.01914773      -0.78244991
Ru       4.07942334       2.35525603      17.47074105  F       0.02549431       0.02086447      -0.78311506
Ru       5.43923120       0.00000000      17.47074105  F      -0.00981033       0.02085204      -0.84182449
Ru       2.71961560       4.71051213      17.47074105  F       0.00063710      -0.00996946      -0.84670198
Ru       8.15884680       4.71051213      17.47074105  F      -0.00442293       0.00385998      -0.75400087
Ru       6.79903898       2.35525603      17.47074105  F       0.00057431       0.01625255      -0.75419167
Ru       5.43923116       4.71051213      17.47074105  F       0.00566184       0.00380803      -0.75405448
Ru       1.35980778       0.78508534      15.28689842  F       0.02383407       0.01318337       0.81096951
Ru       4.07942334       0.78508534      15.28689842  F      -0.02388653       0.01316654       0.81106254
Ru       2.71961556       3.14034137      15.28689842  F      -0.00003248      -0.02713215       0.81056369
Ru       5.43923112       3.14034137      15.28689842  F       0.00221418       0.00147938       0.84834673
Ru       6.79903898       0.78508534      15.28689842  F       0.00006931       0.02006291       0.82354810
Ru       4.07942338       5.49559747      15.28689842  F       0.01686178      -0.01004261       0.82139810
Ru       9.51865458       5.49559747      15.28689842  F      -0.01681472      -0.01010341       0.82140578
Ru       6.79903894       5.49559747      15.28689842  F      -0.00000092      -0.00379487       0.84854192
Ru       8.15884676       3.14034137      15.28689842  F      -0.00215258       0.00143051       0.84826345
H        6.79959533       3.94824547       0.88545428  T      -0.00048874      -0.03537322      -0.00437671
37
Lattice="8.15884676 0.0 0.0 4.07942338 7.06576816 0.0 0.0 0.0 21.83842631" Properties=species:S:1:pos:R:3:move_mask:L:1:forces:R:3 energy=-347.70777279000004 stress="0.0422572010919709 -1.812609148266009e-06 1.3860800183759616e-05 -1.812609148266009e-06 0.0422701433230151 0.0002477075279015331 1.3860800183759616e-05 0.0002477075279015331 0.014020720754733911" free_energy=-347.70126649 pbc="T T T"
Ru       8.15996872       0.00475703      21.63732563  T       0.00315185      -0.00084632      -0.01055850
Ru       1.37150695       2.35222588      21.63589281  T      -0.00471576       0.00227950      -0.01518977
Ru       2.71993991       0.01754649      21.63593955  T       0.00007775      -0.00584090      -0.01357071
Ru       4.06838572       2.35220856      21.63590526  T       0.00296691       0.00204901      -0.01534841
Ru       5.43859954       0.00475625      21.63736822  T      -0.00420487       0.00060570      -0.01127628
Ru      10.87877399       4.71252722      21.63664864  T      -0.00007443      -0.00418300      -0.01080103
Ru       8.16666673       4.71996260      21.66023654  T      -0.00676649      -0.00854468      -0.02162920
Ru       6.79932903       2.35490161      21.66178096  T      -0.00056200      -0.00151011      -0.02559406
Ru       5.43205190       4.71988169      21.66025576  T       0.00547349      -0.00788193      -0.02210727
Ru       1.35896044       0.78681130      19.57084292  T      -0.00125364      -0.00147768      -0.01342310
Ru       4.08059919       0.78676685      19.57084926  T      -0.00007325      -0.00185162      -0.01391713
Ru       2.71981994       3.14359021      19.57079466  T       0.00001837      -0.00251334      -0.01442069
Ru       5.43934555       3.14289699      19.58253478  T      -0.00308748      -0.00215795      -0.02072131
Ru       6.79917413       0.78733473      19.57220935  T       0.00005413      -0.01192431      -0.02270842
Ru       4.07755827       5.49913460      19.57017161  T      -0.00280741      -0.00020443      -0.01314552
Ru       9.52085147       5.49915883      19.57017270  T       0.00135538       0.00010664      -0.01326859
Ru       6.79922590       5.49831122      19.58210544  T       0.00012199       0.00305409      -0.02020850
Ru       8.15911718       3.14289713      19.58251163  T       0.00375522      -0.00220375      -0.02027639
Ru       0.00000000       0.00000000      17.47074105  F       0.01156936       0.02087733      -0.84135904
Ru       1.35980778       2.35525603      17.47074105  F      -0.02333137       0.02041448      -0.78279782
Ru       2.71961556       0.00000000      17.47074105  F       0.00058132      -0.01796940      -0.78227467
Ru       4.07942334       2.35525603      17.47074105  F       0.02479208       0.02036264      -0.78280010
Ru       5.43923120       0.00000000      17.47074105  F      -0.01033750       0.02083254      -0.84154711
Ru       2.71961560       4.71051213      17.47074105  F       0.00067433      -0.01034597      -0.84601779
Ru       8.15884680       4.71051213      17.47074105  F      -0.00372584       0.00429124      -0.75417946
Ru       6.79903898       2.35525603      17.47074105  F       0.00070467       0.01568240      -0.75429692
Ru       5.43923116       4.71051213      17.47074105  F       0.00515176       0.00428193      -0.75414744
Ru       1.35980778       0.78508534      15.28689842  F       0.02388829       0.01327163       0.81111149
Ru       4.07942334       0.78508534      15.28689842  F      -0.02371410       0.01326060       0.81107205
Ru       2.71961556       3.14034137      15.28689842  F       0.00009177      -0.02697230       0.81075043
Ru       5.43923112       3.14034137      15.28689842  F       0.00240588       0.00161882       0.84814752
Ru       6.79903898       0.78508534      15.28689842  F       0.00011925       0.02011102       0.82321414
Ru       4.07942338       5.49559747      15.28689842  F       0.01691433      -0.00985621       0.82144930
Ru       9.51865458       5.49559747      15.28689842  F      -0.01669293      -0.00988007       0.82143766
Ru       6.79903894       5.49559747      15.28689842  F       0.00010897      -0.00368437       0.84826097
Ru       8.15884676       3.14034137      15.28689842  F      -0.00218433       0.00160504       0.84814080
H        6.79959158       3.94781079       0.88537239  T      -0.00044570      -0.03485627      -0.00599914
37
Lattice="8.15884676 0.0 0.0 4.07942338 7.06576816 0.0 0.0 0.0 21.83842631" Properties=species:S:1:pos:R:3:move_mask:L:1:forces:R:3 energy=-347.70786474 stress="0.04226216726105408 -1.2067833064712763e-06 1.2144678525070637e-05 -1.2067833064712763e-06 0.042274683378028734 0.0002478960714092078 1.2144678525070637e-05 0.0002478960714092078 0.014011571445094953" free_energy=-347.70136727 pbc="T T T"
Ru       8.15999924       0.00474883      21.63722321  T       0.00279616       0.00001804      -0.00998669
Ru       1.37146147       2.35224785      21.63574562  T      -0.00484790       0.00278555      -0.01423218
Ru       2.71994065       0.01749011      21.63580808  T      -0.00004708      -0.00600669      -0.01479836
Ru       4.06841436       2.35222835      21.63575654  T       0.00311960       0.00248769      -0.01477077
Ru       5.43855887       0.00476212      21.63725881  T      -0.00164329      -0.00095648      -0.01025259
Ru      10.87877325       4.71248680      21.63654382  T      -0.00068515      -0.00414219      -0.00996993
Ru       8.16660142       4.71988000      21.66002733  T      -0.00608988      -0.00814454      -0.02010727
Ru       6.79932356       2.35488691      21.66153353  T      -0.00151608      -0.00187630      -0.02110060
Ru       5.43210477       4.71980552      21.66004196  T       0.00513079      -0.00779454      -0.02080898
Ru       1.35894837       0.78679703      19.57071386  T      -0.00136298      -0.00138539      -0.01323176
Ru       4.08059846       0.78674891      19.57071539  T      -0.00005256      -0.00162263      -0.01360563
Ru       2.71982014       3.14356584      19.57065577  T       0.00004824      -0.00214372      -0.01353588
Ru       5.43931573       3.14287615      19.58233474  T      -0.00286964      -0.00228320      -0.01996407
Ru       6.79917462       0.78721942      19.57199010  T       0.00061441      -0.01029096      -0.01961604
Ru       4.07753110       5.49913262      19.57004517  T      -0.00245207      -0.00048547      -0.01245978
Ru       9.52086457       5.49915989      19.57004517  T       0.00098172      -0.00027423      -0.01249545
Ru       6.79922700       5.49834069      19.58191020  T       0.00002464       0.00226030      -0.01934982
Ru       8.15915341       3.14287579      19.58231574  T       0.00329508      -0.00228006      -0.01965641
Ru       0.00000000       0.00000000      17.47074105  F       0.01185929       0.02063355      -0.84266161
Ru       1.35980778       2.35525603      17.47074105  F      -0.02327002       0.02024809      -0.78417430
Ru       2.71961556       0.00000000      17.47074105  F       0.00044716      -0.01795577      -0.78361067
Ru       4.07942334       2.35525603      17.47074105  F       0.02463787       0.02026951      -0.78416700
Ru       5.43923120       0.00000000      17.47074105  F      -0.01069769       0.02064070      -0.84278880
Ru       2.71961560       4.71051213      17.47074105  F       0.00066117      -0.01066550      -0.84698291
Ru       8.15884680       4.71051213      17.47074105  F      -0.00380497       0.00417240      -0.75534093
Ru       6.79903898       2.35525603      17.47074105  F       0.00065451       0.01567587      -0.75514070
Ru       5.43923116       4.71051213      17.47074105  F       0.00506576       0.00419099      -0.75526398
Ru       1.35980778       0.78508534      15.28689842  F       0.02411387       0.01348116       0.81031225
Ru       4.07942334       0.78508534      15.28689842  F      -0.02419265       0.01346880       0.81049733
Ru       2.71961556       3.14034137      15.28689842  F      -0.00003103      -0.02740725       0.80996180
Ru       5.43923112       3.14034137      15.28689842  F       0.00213317       0.00158489       0.84731063
Ru       6.79903898       0.78508534      15.28689842  F       0.00020788       0.02026338       0.82272948
Ru       4.07942338       5.49559747      15.28689842  F       0.01705911      -0.01010554       0.82066858
Ru       9.51865458       5.49559747      15.28689842  F      -0.01687816      -0.01025375       0.82069503
Ru       6.79903894       5.49559747      15.28689842  F      -0.00002042      -0.00360124       0.84750790
Ru       8.15884676       3.14034137      15.28689842  F      -0.00194209       0.00144091       0.84721289
H        6.79958730       3.94747382       0.88531430  T      -0.00044676      -0.03394638      -0.00682279
37
Lattice="8.15884676 0.0 0.0 4.07942338 7.06576816 0.0 0.0 0.0 21.83842631" Properties=species:S:1:pos:R:3:move_mask:L:1:forces:R:3 energy=-347.70781922 stress="0.04221087199252184 -1.365642196743257e-07 1.1256530500984828e-05 -1.365642196743257e-07 0.04221809017299574 0.00023320978795298623 1.1256530500984828e-05 0.00023320978795298623 0.013777997383944852" free_energy=-347.70134704 pbc="T T T"
Ru       8.16019126       0.00475653      21.63660780  T       0.00163416      -0.00182069      -0.01177940
Ru       1.37112410       2.35244216      21.63484020  T      -0.00170058      -0.00096312      -0.01298776
Ru       2.71993673       0.01707563      21.63485767  T      -0.00051971      -0.00378505      -0.01333657
Ru       4.06863481       2.35240372      21.63481465  T       0.00067069      -0.00100042      -0.01364784
Ru       5.43845395       0.00469513      21.63662615  T      -0.00211077      -0.00185037      -0.01277146
Ru      10.87872667       4.71220120      21.63593190  T      -0.00003772      -0.00297426      -0.01101357
Ru       8.16618087       4.71932865      21.65870545  T      -0.00511378      -0.00732026      -0.01774708
Ru       6.79922125       2.35476722      21.66014832  T       0.00017505      -0.00383976      -0.02203147
Ru       5.43245993       4.71927616      21.65867029  T       0.00329821      -0.00575821      -0.01750597
Ru       1.35885324       0.78670093      19.56972523  T      -0.00059511      -0.00142705      -0.00702295
Ru       4.08059679       0.78663960      19.56970274  T       0.00170670      -0.00067514      -0.00689001
Ru       2.71982328       3.14343166      19.56964836  T      -0.00062694      -0.00130159      -0.00839606
Ru       5.43911902       3.14271943      19.58095259  T      -0.00153607      -0.00190926      -0.01425725
Ru       6.79921839       0.78653552      19.57061013  T      -0.00046059      -0.00315663      -0.00566213
Ru       4.07736494       5.49909920      19.56912751  T      -0.00004763      -0.00171637      -0.00677625
Ru       9.52093392       5.49914124      19.56912468  T       0.00151980      -0.00266933      -0.00704076
Ru       6.79922729       5.49849225      19.58057172  T      -0.00036784       0.00045075      -0.01341331
Ru       8.15937696       3.14271851      19.58095171  T       0.00123846      -0.00177033      -0.01396503
Ru       0.00000000       0.00000000      17.47074105  F       0.01273209       0.01920475      -0.84958090
Ru       1.35980778       2.35525603      17.47074105  F      -0.02223165       0.01990777      -0.78997932
Ru       2.71961556       0.00000000      17.47074105  F      -0.00013380      -0.01697141      -0.78962156
Ru       4.07942334       2.35525603      17.47074105  F       0.02317957       0.02015876      -0.79016000
Ru       5.43923120       0.00000000      17.47074105  F      -0.01151378       0.01924178      -0.84957126
Ru       2.71961560       4.71051213      17.47074105  F       0.00045665      -0.01135656      -0.85270610
Ru       8.15884680       4.71051213      17.47074105  F      -0.00271476       0.00439212      -0.76188955
Ru       6.79903898       2.35525603      17.47074105  F       0.00079643       0.01460424      -0.76087428
Ru       5.43923116       4.71051213      17.47074105  F       0.00353952       0.00474124      -0.76176879
Ru       1.35980778       0.78508534      15.28689842  F       0.02280662       0.01333870       0.81036028
Ru       4.07942334       0.78508534      15.28689842  F      -0.02330726       0.01331769       0.81042355