36
Lattice="8.15884676 0.0 0.0 4.07942338 7.06576816 0.0 0.0 0.0 21.83842631" Properties=species:S:1:pos:R:3:move_mask:L:1:forces:R:3 system=slab source=NH3surf BEXT=0.1 energy=-338.45332049 stress="0.05273026964269132 2.9079066187307584e-06 4.9597821468847636e-05 2.9079066187307584e-06 0.052716388738606665 6.867025056517415e-05 4.9597821468847636e-05 6.867025056517415e-05 0.018430053613724535" free_energy=-338.45162849 pbc="T T T"
Ru       0.00085904       0.00147420      21.60220245  T       0.00009247      -0.00159845      -0.00657178
Ru       9.51772676       2.35606796      21.60430091  T       0.01811142       0.00256430      -0.02688405
Ru       2.71922577       0.00042091      21.60442037  T       0.01358583       0.00717770      -0.02803284
Ru       4.08126948       2.35787496      21.60856159  T      -0.01075275      -0.01353874      -0.05764641
Ru       5.44217883       0.00005441      21.60466168  T      -0.01781747       0.01169725      -0.03108888
Ru      10.87888874       4.71508029      21.60449789  T       0.00337954      -0.02977247      -0.02902888
Ru       8.16002930       4.71214439      21.60031103  T      -0.00373557      -0.00572327       0.00434646
Ru       6.80281285       2.35587315      21.60426553  T      -0.02531940       0.00510865      -0.02682571
Ru       5.44101481       4.71524952      21.60423277  T      -0.00629004      -0.02990670      -0.02707760
Ru       1.36098531       0.78633450      19.55878811  T      -0.00049346       0.00049303       0.07225546
Ru       4.08033020       0.78757659      19.56141986  T      -0.00200322      -0.00984760       0.05895775
Ru       2.72145542       3.14105466      19.56137640  T      -0.00711687       0.00385434       0.05737858
Ru       5.43929545       3.14112391      19.56121742  T       0.00533296       0.00457486       0.06161701
Ru       6.79922924       0.78626971      19.55861996  T       0.00255931       0.00018434       0.07450126
Ru       4.08005422       5.49625063      19.55857846  T       0.00006151       0.00175373       0.07443568
Ru       9.51934641       5.49681271      19.55763679  T       0.00363794       0.00101712       0.08337353
Ru       6.79979653       5.49691489      19.55763089  T      -0.00378602       0.00162229       0.08297259
Ru       8.15966697       3.14120043      19.55764531  T       0.00030676      -0.00302078       0.08288847
Ru       0.00000000       0.00000000      17.47074105  F       0.00323274       0.00532146      -1.20594037
Ru       1.35980778       2.35525603      17.47074105  F       0.01331573       0.00764195      -1.20414605
Ru       2.71961556       0.00000000      17.47074105  F       0.01102925       0.01263151      -1.20427112
Ru       4.07942334       2.35525603      17.47074105  F       0.00342154       0.00560812      -1.19528572
Ru       5.43923120       0.00000000      17.47074105  F      -0.00511131       0.01176681      -1.20508662
Ru       2.71961560       4.71051213      17.47074105  F       0.00452825      -0.00471991      -1.20500877
Ru       8.15884680       4.71051213      17.47074105  F       0.00289539       0.00456337      -1.21899100
Ru       6.79903898       2.35525603      17.47074105  F      -0.00605685       0.00758010      -1.20532865
Ru       5.43923116       4.71051213      17.47074105  F       0.00124046      -0.00392352      -1.20545808
Ru       1.35980778       0.78508534      15.28689842  F       0.00043966       0.00087769       1.15802309
Ru       4.07942334       0.78508534      15.28689842  F       0.00011691       0.00217306       1.15989649
Ru       2.71961556       3.14034137      15.28689842  F       0.00140154      -0.00001758       1.16002135
Ru       5.43923112       3.14034137      15.28689842  F      -0.00112579      -0.00001058       1.16006718
Ru       6.79903898       0.78508534      15.28689842  F       0.00006739       0.00076646       1.15780748
Ru       4.07942338       5.49559747      15.28689842  F       0.00014341       0.00071246       1.15782705
Ru       9.51865458       5.49559747      15.28689842  F       0.00110790       0.00130784       1.15850392
Ru       6.79903894       5.49559747      15.28689842  F      -0.00069741       0.00143199       1.15884840
Ru       8.15884676       3.14034137      15.28689842  F       0.00029829      -0.00035082       1.15895077
