40
Lattice="8.15884676 0.0 0.0 4.07942338 7.06576816 0.0 0.0 0.0 21.83842631" Properties=species:S:1:pos:R:3:move_mask:L:1:forces:R:3 system=adsorbed source=NH3diss BEXT=0.1 energy=-359.36884848 stress="0.052837894593499746 -4.293696406932366e-06 0.00012495569302467755 -4.293696406932366e-06 0.05285530375403665 0.00019180601315138104 0.00012495569302467755 0.00019180601315138104 0.019710664941691304" free_energy=-359.36844231 pbc="T T T"
Ru       0.00067368       0.00099415      21.61001799  T      -0.00124599      -0.00025823      -0.04271845
Ru       9.49250274       2.35339646      21.59810011  T       0.01168719      -0.00124678      -0.04613681
Ru       6.78429631       7.04650023      21.59872993  T       0.00319881       0.01336242      -0.04497037
Ru       4.08324286       2.36124787      21.67946266  T       0.00081626      -0.00021557      -0.05774646
Ru       9.53572281       7.04487242      21.59759345  T      -0.00224350       0.01096622      -0.04540675
Ru      10.86673459       4.73897163      21.59627223  T       0.00697511      -0.00316398      -0.04524665
Ru       8.15977140       4.71199036      21.60173358  T      -0.00292855      -0.00494272      -0.02435955
Ru       6.82981493       2.35356300      21.59652534  T      -0.00655459      -0.00121357      -0.04689825
Ru       5.45345028       4.74035052      21.59556161  T      -0.00480399      -0.00256334      -0.04761631
Ru       1.36335064       0.78753370      19.55060809  T      -0.00916983      -0.00574543       0.08254027
Ru       4.07986139       0.78920596      19.56367533  T       0.00170978       0.00039948       0.09675819
Ru       2.72249955       3.13962307      19.56332810  T       0.00415112      -0.00276594       0.09818613
Ru       5.43781107       3.13996604      19.56291448  T      -0.00519909      -0.00205225       0.10186072
Ru       6.79668254       0.78732378      19.55000404  T       0.01132200      -0.00446241       0.08049161
Ru       4.07982883       5.49337805      19.54946354  T       0.00038134       0.01435461       0.08054789
Ru       9.52173226       5.49833518      19.56033143  T      -0.01011593      -0.00535755       0.07512095
Ru       6.79720601       5.49877050      19.56045831  T       0.00889023      -0.00565967       0.07524896
Ru       8.15982305       3.13792728      19.56059197  T       0.00000951       0.00790577       0.07584693
Ru       0.00000000       0.00000000      17.47074105  F       0.00429318       0.00676029      -1.23721283
Ru       1.35980778       2.35525603      17.47074105  F       0.04896765       0.04408959      -1.18200970
Ru       2.71961556       0.00000000      17.47074105  F       0.06132838       0.02545648      -1.18311204
Ru       4.07942334       2.35525603      17.47074105  F       0.00188900       0.00307568      -1.06137511
Ru       5.43923120       0.00000000      17.47074105  F      -0.05897749       0.02380241      -1.18596466
Ru       2.71961560       4.71051213      17.47074105  F      -0.01364893      -0.05927578      -1.18734412
Ru       8.15884680       4.71051213      17.47074105  F       0.00222629       0.00354402      -1.22658490
Ru       6.79903898       2.35525603      17.47074105  F      -0.04257047       0.04670490      -1.18348274
Ru       5.43923116       4.71051213      17.47074105  F       0.01932537      -0.05770242      -1.18610085
Ru       1.35980778       0.78508534      15.28689842  F       0.00911057       0.00477633       1.13345106
Ru       4.07942334       0.78508534      15.28689842  F       0.00040753       0.01245469       1.16832304
Ru       2.71961556       3.14034137      15.28689842  F       0.01173766      -0.00583962       1.16852907
Ru       5.43923112       3.14034137      15.28689842  F      -0.01236701      -0.00663014       1.16871610
Ru       6.79903898       0.78508534      15.28689842  F      -0.00922814       0.00416851       1.13311040
Ru       4.07942338       5.49559747      15.28689842  F      -0.00057816      -0.00979786       1.13266928
Ru       9.51865458       5.49559747      15.28689842  F      -0.00856999      -0.00515648       1.16029536
Ru       6.79903894       5.49559747      15.28689842  F       0.00782152      -0.00524390       1.15999423
Ru       8.15884676       3.14034137      15.28689842  F      -0.00034066       0.00905681       1.15975022
N        4.11276320       2.40639728       2.05923366  T      -0.00211910      -0.00313894       0.26650800
H        4.13117641       1.45251575       2.44748900  T      -0.01029528       0.15570438      -0.12639186
H        4.94526337       2.90634136       2.40464921  T      -0.15369391      -0.09887604      -0.12900638
H        3.27975139       2.88665076       2.42935852  T       0.13840210      -0.09527396      -0.12826362
40
Lattice="8.15884676 0.0 0.0 4.07942338 7.06576816 0.0 0.0 0.0 21.83842631" Properties=species:S:1:pos:R:3:move_mask:L:1:forces:R:3 system=adsorbed source=NH3diss BEXT=0.1 energy=-359.37125979999996 stress="0.05281723585365152 -5.914809813707151e-06 0.0001275755727217762 -5.914809813707151e-06 0.05283723842988685 0.00019653514844248063 0.0001275755727217762 0.00019653514844248063 0.0197339511384287" free_energy=-359.37087726 pbc="T T T"
Ru       0.00066168       0.00099161      21.60960568  T      -0.00170523      -0.00164419      -0.02902948
Ru       9.49261546       2.35338438      21.59765482  T       0.01030450      -0.00113687      -0.03280880
Ru       6.78432719       7.04662918      21.59829600  T       0.00384102       0.01235539      -0.03177802
Ru       4.08325070       2.36124575      21.67890534  T       0.00048347       0.00009996      -0.03380737
Ru       9.53570119       7.04497827      21.59715538  T      -0.00212953       0.00916236      -0.03154696
Ru      10.86680190       4.73894111      21.59583546  T       0.00716941      -0.00189262      -0.03108674
Ru       8.15974321       4.71194267      21.60149860  T      -0.00155835      -0.00332587      -0.01382436
Ru       6.82975161       2.35355127      21.59607285  T      -0.00580543      -0.00208912      -0.03272346
Ru       5.45340393       4.74032579      21.59510235  T      -0.00456701      -0.00255619      -0.03358009
Ru       1.36326219       0.78747831      19.55140454  T      -0.00941143      -0.00440874       0.06733818
Ru       4.07987787       0.78920977      19.56460893  T       0.00090792       0.00184420       0.07505824
Ru       2.72253961       3.13959636      19.56427545  T       0.00521155      -0.00185345       0.07619049
Ru       5.43776089       3.13994626      19.56389721  T      -0.00697765      -0.00234550       0.08142056
Ru       6.79679183       0.78728075      19.55078062  T       0.01072549      -0.00528521       0.06461302
Ru       4.07983251       5.49351653      19.55024077  T      -0.00067897       0.01180988       0.06341737
Ru       9.52163460       5.49828345      19.56105625  T      -0.00915208      -0.00516405       0.05972466
Ru       6.79729172       5.49871588      19.56118422  T       0.00818878      -0.00470947       0.06126465
Ru       8.15982313       3.13800359      19.56132377  T       0.00044554       0.00875810       0.05959087
Ru       0.00000000       0.00000000      17.47074105  F       0.00380019       0.00624416      -1.23313890
Ru       1.35980778       2.35525603      17.47074105  F       0.04922854       0.04439849      -1.17753308
Ru       2.71961556       0.00000000      17.47074105  F       0.06161510       0.02519779      -1.17843907
Ru       4.07942334       2.35525603      17.47074105  F       0.00210252       0.00324053      -1.05660245
Ru       5.43923120       0.00000000      17.47074105  F      -0.05842356       0.02326284      -1.18087107
Ru       2.71961560       4.71051213      17.47074105  F      -0.01357609      -0.05874430      -1.18207201
Ru       8.15884680       4.71051213      17.47074105  F       0.00284102       0.00388579      -1.22344980
Ru       6.79903898       2.35525603      17.47074105  F      -0.04290244       0.04644306      -1.17918078
Ru       5.43923116       4.71051213      17.47074105  F       0.01878675      -0.05769727      -1.18149528
Ru       1.35980778       0.78508534      15.28689842  F       0.00855275       0.00436316       1.13491935
Ru       4.07942334       0.78508534      15.28689842  F       0.00163994       0.01200461       1.16917911
Ru       2.71961556       3.14034137      15.28689842  F       0.01205390      -0.00422968       1.16894236
Ru       5.43923112       3.14034137      15.28689842  F      -0.01219609      -0.00617749       1.16866235
Ru       6.79903898       0.78508534      15.28689842  F      -0.00965066       0.00349676       1.13257932
Ru       4.07942338       5.49559747      15.28689842  F      -0.00130039      -0.01025961       1.13151848
Ru       9.51865458       5.49559747      15.28689842  F      -0.00772360      -0.00503694       1.15868244
Ru       6.79903894       5.49559747      15.28689842  F       0.00794549      -0.00594894       1.16020973
Ru       8.15884676       3.14034137      15.28689842  F      -0.00057874       0.00967000       1.16020716
N        4.11274276       2.40636697       2.06180492  T      -0.00490216      -0.00758561       0.12943734
H        4.13107704       1.45401808       2.44626954  T      -0.00829303       0.06359617      -0.08363878
H        4.94378054       2.90538741       2.40340442  T      -0.07169097      -0.04954827      -0.08946198
H        3.28108675       2.88573150       2.42812093  T       0.05737950      -0.04819386      -0.08688721
40
Lattice="8.15884676 0.0 0.0 4.07942338 7.06576816 0.0 0.0 0.0 21.83842631" Properties=species:S:1:pos:R:3:move_mask:L:1:forces:R:3 system=adsorbed source=NH3diss BEXT=0.1 energy=-359.37130666 stress="0.05256776328314278 -7.483850309844691e-06 0.00013005627300687674 -7.483850309844691e-06 0.052586029146980795 0.00019724623109417428 0.00013005627300687674 0.00019724623109417428 0.019558873980044036" free_energy=-359.37088223 pbc="T T T"
Ru       0.00062603       0.00095727      21.60899879  T      -0.00081230      -0.00147491      -0.00421266
Ru       9.49283093       2.35336064      21.59696888  T       0.00818421      -0.00163684      -0.01233686
Ru       6.78440748       7.04688751      21.59763145  T       0.00317671       0.00935119      -0.01084334
Ru       4.08326081       2.36124787      21.67819865  T       0.00038583      -0.00031702      -0.00883042
Ru       9.53565668       7.04516982      21.59649586  T      -0.00145203       0.00832544      -0.01283147
Ru      10.86695186       4.73890154      21.59518555  T       0.00617576      -0.00163023      -0.01238766
Ru       8.15971058       4.71187314      21.60120946  T      -0.00224015      -0.00357093      -0.00036286
Ru       6.82963029       2.35350761      21.59538865  T      -0.00341895       0.00006257      -0.01089460
Ru       5.45330847       4.74027237      21.59440024  T      -0.00308965      -0.00153514      -0.01330071
Ru       1.36306536       0.78738610      19.55281246  T      -0.00728964      -0.00315604       0.03930185
Ru       4.07989688       0.78924835      19.56617824  T       0.00046821       0.00295424       0.04173715
Ru       2.72264857       3.13955757      19.56586835  T       0.00334655      -0.00160050       0.04235757
Ru       5.43761501       3.13989722      19.56559952  T      -0.00451837      -0.00193645       0.04204072
Ru       6.79701604       0.78717024      19.55213154  T       0.00858914      -0.00393159       0.03789940
Ru       4.07981827       5.49376348      19.55156658  T       0.00056190       0.00997916       0.03684286
Ru       9.52144327       5.49817549      19.56230497  T      -0.00683715      -0.00415906       0.03006255
Ru       6.79746298       5.49861738      19.56246527  T       0.00660077      -0.00208042       0.03044925
Ru       8.15983243       3.13818674      19.56256965  T       0.00203373       0.00347140       0.02823295
Ru       0.00000000       0.00000000      17.47074105  F       0.00440817       0.00692573      -1.22368720
Ru       1.35980778       2.35525603      17.47074105  F       0.04915320       0.04349907      -1.16658688
Ru       2.71961556       0.00000000      17.47074105  F       0.06059221       0.02581709      -1.16765441
Ru       4.07942334       2.35525603      17.47074105  F       0.00182085       0.00301409      -1.04621885
Ru       5.43923120       0.00000000      17.47074105  F      -0.05852649       0.02415938      -1.17086362
Ru       2.71961560       4.71051213      17.47074105  F      -0.01317453      -0.05923371      -1.17198360
Ru       8.15884680       4.71051213      17.47074105  F       0.00194792       0.00342753      -1.21513068
Ru       6.79903898       2.35525603      17.47074105  F      -0.04327783       0.04640455      -1.16787216
Ru       5.43923116       4.71051213      17.47074105  F       0.01848510      -0.05778375      -1.17038509
Ru       1.35980778       0.78508534      15.28689842  F       0.00864866       0.00462978       1.13434388
Ru       4.07942334       0.78508534      15.28689842  F       0.00023958       0.01244976       1.17042311
Ru       2.71961556       3.14034137      15.28689842  F       0.01153937      -0.00565758       1.17043188
Ru       5.43923112       3.14034137      15.28689842  F      -0.01266481      -0.00655868       1.17111638
Ru       6.79903898       0.78508534      15.28689842  F      -0.00901486       0.00380490       1.13424366
Ru       4.07942338       5.49559747      15.28689842  F      -0.00088883      -0.00941219       1.13359298
Ru       9.51865458       5.49559747      15.28689842  F      -0.00828687      -0.00502825       1.16165936
Ru       6.79903894       5.49559747      15.28689842  F       0.00744732      -0.00494616       1.16176250
Ru       8.15884676       3.14034137      15.28689842  F      -0.00024091       0.00880594       1.16151311
N        4.11264029       2.40620841       2.06451135  T      -0.00728104      -0.01117706      -0.03370118
H        4.13090366       1.45534771       2.44452072  T      -0.00632938      -0.04292439      -0.03117258
H        4.94228160       2.90435143       2.40153396  T       0.02162158       0.00678951      -0.04080211
H        3.28228647       2.88472386       2.42630420  T      -0.03608298       0.00587958      -0.03595224
40
Lattice="8.15884676 0.0 0.0 4.07942338 7.06576816 0.0 0.0 0.0 21.83842631" Properties=species:S:1:pos:R:3:move_mask:L:1:forces:R:3 system=adsorbed source=NH3diss BEXT=0.1 energy=-359.37230854 stress="0.05269306871913132 -8.287494541875167e-06 0.0001282753457589337 -8.287494541875167e-06 0.05271364634432694 0.0001958362180090551 0.0001282753457589337 0.0001958362180090551 0.019650211825135627" free_energy=-359.37189493 pbc="T T T"
Ru       0.00061771       0.00094243      21.60895140  T      -0.00028989      -0.00045902       0.00240455
Ru       9.49291354       2.35334432      21.59684090  T       0.00746607      -0.00102585      -0.00727030
Ru       6.78443950       7.04698198      21.59751833  T       0.00306645       0.00654607      -0.00532401
Ru       4.08326473       2.36124476      21.67810474  T       0.00042719      -0.00047547      -0.00636826
Ru       9.53564195       7.04525355      21.59636308  T      -0.00131551       0.00722087      -0.00731782
Ru      10.86701403       4.73888515      21.59505736  T       0.00531941      -0.00125243      -0.00760752
Ru       8.15968826       4.71183732      21.60120313  T      -0.00199040      -0.00331545       0.00436557
Ru       6.82959545       2.35350775      21.59527465  T      -0.00293499       0.00047273      -0.00586010
Ru       5.45327710       4.74025675      21.59426244  T      -0.00208081      -0.00024455      -0.00622302
Ru       1.36299177       0.78735416      19.55321276  T      -0.00660260      -0.00381935       0.02953797
Ru       4.07990161       0.78927775      19.56660408  T      -0.00066250       0.00490564       0.03227321
Ru       2.72268251       3.13954146      19.56630053  T       0.00374195      -0.00054970       0.03330445
Ru       5.43756916       3.13987772      19.56602973  T      -0.00478130      -0.00209365       0.03282523
Ru       6.79710272       0.78713046      19.55251764  T       0.00645844      -0.00356948       0.03016404
Ru       4.07982369       5.49386403      19.55194198  T       0.00025822       0.00785232       0.02919834
Ru       9.52137417       5.49813352      19.56261289  T      -0.00629225      -0.00388566       0.02260442
Ru       6.79752959       5.49859597      19.56277734  T       0.00690484      -0.00257339       0.02076662
Ru       8.15985250       3.13822263      19.56285967  T       0.00195021       0.00351601       0.02100221
Ru       0.00000000       0.00000000      17.47074105  F       0.00451034       0.00705338      -1.22185765
Ru       1.35980778       2.35525603      17.47074105  F       0.04935209       0.04353698      -1.16433335
Ru       2.71961556       0.00000000      17.47074105  F       0.06078063       0.02584935      -1.16522486
Ru       4.07942334       2.35525603      17.47074105  F       0.00185361       0.00292355      -1.04391561
Ru       5.43923120       0.00000000      17.47074105  F      -0.05861796       0.02411321      -1.16807518
Ru       2.71961560       4.71051213      17.47074105  F      -0.01329095      -0.05935175      -1.16928677
Ru       8.15884680       4.71051213      17.47074105  F       0.00201605       0.00341099      -1.21311470
Ru       6.79903898       2.35525603      17.47074105  F      -0.04335289       0.04647962      -1.16543566
Ru       5.43923116       4.71051213      17.47074105  F       0.01868983      -0.05792579      -1.16793002
Ru       1.35980778       0.78508534      15.28689842  F       0.00896267       0.00480481       1.13661109
Ru       4.07942334       0.78508534      15.28689842  F       0.00031276       0.01234346       1.17140134
Ru       2.71961556       3.14034137      15.28689842  F       0.01149221      -0.00572105       1.17166466
Ru       5.43923112       3.14034137      15.28689842  F      -0.01234903      -0.00651694       1.17212209
Ru       6.79903898       0.78508534      15.28689842  F      -0.00924300       0.00418970       1.13563146
Ru       4.07942338       5.49559747      15.28689842  F      -0.00063666      -0.00974876       1.13526759
Ru       9.51865458       5.49559747      15.28689842  F      -0.00878891      -0.00524447       1.16259676
Ru       6.79903894       5.49559747      15.28689842  F       0.00785495      -0.00526632       1.16189305
Ru       8.15884676       3.14034137      15.28689842  F      -0.00034820       0.00919810       1.16158653
N        4.11256768       2.40609692       2.06420715  T      -0.00741505      -0.01121146      -0.02501944
H        4.13083970       1.45493917       2.44419686  T      -0.00646580      -0.03135816      -0.03460314
H        4.94247900       2.90440774       2.40111423  T       0.01199444       0.00102552      -0.04340646
H        3.28194384       2.88477155       2.42593272  T      -0.02595364       0.00016637      -0.03904729
40
Lattice="8.15884676 0.0 0.0 4.07942338 7.06576816 0.0 0.0 0.0 21.83842631" Properties=species:S:1:pos:R:3:move_mask:L:1:forces:R:3 system=adsorbed source=NH3diss BEXT=0.1 energy=-359.37252974 stress="0.052646535784477234 -4.155066247737373e-06 0.00012963093288447517 -4.155066247737373e-06 0.05267003934176993 0.00019635227846660137 0.00012963093288447517 0.00019635227846660137 0.01960374577449333" free_energy=-359.37206914 pbc="T T T"
Ru       0.00060800       0.00092745      21.60900862  T      -0.00010373      -0.00017811       0.00768223
Ru       9.49314354       2.35331266      21.59660527  T       0.00453301       0.00016239       0.00372750
Ru       6.78453369       7.04718583      21.59734166  T       0.00220996       0.00481399       0.00472073
Ru       4.08327778       2.36123049      21.67789706  T       0.00005972      -0.00060921      -0.00333208
Ru       9.53560128       7.04547577      21.59612657  T      -0.00022213       0.00387280       0.00369262
Ru      10.86717790       4.73884636      21.59481255  T       0.00359164      -0.00099439       0.00173933
Ru       8.15962744       4.71173578      21.60132695  T      -0.00107345      -0.00203890       0.00853438
Ru       6.82950420       2.35352096      21.59508182  T      -0.00169064       0.00147334       0.00349460
Ru       5.45321196       4.74024778      21.59405738  T      -0.00044079      -0.00009125       0.00270301
Ru       1.36278829       0.78723729      19.55413675  T      -0.00479330      -0.00293597       0.01303110
Ru       4.07988248       0.78942577      19.56761389  T       0.00015090       0.00446036       0.01640950
Ru       2.72279759       3.13952372      19.56734179  T       0.00247646      -0.00075804       0.01515671
Ru       5.43742198       3.13981356      19.56705876  T      -0.00367935      -0.00123062       0.01387379
Ru       6.79730302       0.78702037      19.55345844  T       0.00488168      -0.00224908       0.01517606
Ru       4.07983128       5.49410681      19.55285330  T       0.00121102       0.00514552       0.01434623
Ru       9.52118015       5.49801397      19.56332352  T      -0.00426303      -0.00261207       0.00530882
Ru       6.79774127       5.49851648      19.56343402  T       0.00498039      -0.00144832       0.00552930
Ru       8.15991153       3.13833250      19.56352181  T       0.00147570       0.00301455       0.00558069
Ru       0.00000000       0.00000000      17.47074105  F       0.00423263       0.00696131      -1.21577691
Ru       1.35980778       2.35525603      17.47074105  F       0.05017806       0.04334244      -1.15689692
Ru       2.71961556       0.00000000      17.47074105  F       0.06094566       0.02642071      -1.15769325
Ru       4.07942334       2.35525603      17.47074105  F       0.00175693       0.00303232      -1.03693253
Ru       5.43923120       0.00000000      17.47074105  F      -0.05873416       0.02470850      -1.16047593
Ru       2.71961560       4.71051213      17.47074105  F      -0.01280455      -0.05968825      -1.16189764
Ru       8.15884680       4.71051213      17.47074105  F       0.00202934       0.00311621      -1.20821191
Ru       6.79903898       2.35525603      17.47074105  F      -0.04416312       0.04616520      -1.15778559
Ru       5.43923116       4.71051213      17.47074105  F       0.01812602      -0.05843010      -1.16035313
Ru       1.35980778       0.78508534      15.28689842  F       0.00890536       0.00465899       1.13762015
Ru       4.07942334       0.78508534      15.28689842  F       0.00058050       0.01235544       1.17264007
Ru       2.71961556       3.14034137      15.28689842  F       0.01174351      -0.00552057       1.17292862
Ru       5.43923112       3.14034137      15.28689842  F      -0.01256145      -0.00658488       1.17299860
Ru       6.79903898       0.78508534      15.28689842  F      -0.00959305       0.00402837       1.13646418
Ru       4.07942338       5.49559747      15.28689842  F      -0.00084287      -0.00999809       1.13573073
Ru       9.51865458       5.49559747      15.28689842  F      -0.00857800      -0.00507398       1.16286058
Ru       6.79903894       5.49559747      15.28689842  F       0.00770160      -0.00536013       1.16319503
Ru       8.15884676       3.14034137      15.28689842  F      -0.00053998       0.00918421       1.16328228
N        4.11234192       2.40575550       2.06350591  T      -0.00699742      -0.01053995      -0.01435017
H        4.13064111       1.45401681       2.44311804  T      -0.00673436      -0.01417061      -0.03780361
H        4.94281310       2.90441919       2.39976701  T      -0.00326010      -0.00801186      -0.04520543
H        3.28118225       2.88475763       2.42471829  T      -0.01069460      -0.00839228      -0.04171176
40
Lattice="8.15884676 0.0 0.0 4.07942338 7.06576816 0.0 0.0 0.0 21.83842631" Properties=species:S:1:pos:R:3:move_mask:L:1:forces:R:3 system=adsorbed source=NH3diss BEXT=0.1 energy=-359.37256537 stress="0.05261990465689362 -5.0593236068770885e-06 0.00012662221965185227 -5.0593236068770885e-06 0.052645998696375436 0.00019349040921918314 0.00012662221965185227 0.00019349040921918314 0.01963224688317709" free_energy=-359.37209209 pbc="T T T"
Ru       0.00060396       0.00092102      21.60912480  T      -0.00087499      -0.00030662       0.00855652
Ru       9.49326531       2.35330637      21.59659107  T       0.00364595       0.00059075       0.00733363
Ru       6.78458836       7.04730481      21.59735651  T       0.00216510       0.00356357       0.00868339
Ru       4.08328211       2.36121862      21.67779573  T      -0.00021775      -0.00049585      -0.00132922
Ru       9.53558749       7.04558670      21.59611172  T       0.00036121       0.00193687       0.01030402
Ru      10.86726961       4.73882276      21.59476931  T       0.00287727      -0.00031439       0.00864878
Ru       8.15959693       4.71168151      21.60147283  T      -0.00089034      -0.00055879       0.00865513
Ru       6.82945720       2.35354399      21.59507570  T      -0.00170699       0.00123757       0.00797769
Ru       5.45318862       4.74024396      21.59403750  T      -0.00054441      -0.00000574       0.00804352
Ru       1.36266994       0.78716699      19.55455866  T      -0.00393194      -0.00217907       0.00502630
Ru       4.07987958       0.78952448      19.56810395  T       0.00149843       0.00397147       0.00785882
Ru       2.72286123       3.13950874      19.56782354  T       0.00236380      -0.00103468       0.00630864
Ru       5.43733362       3.13978007      19.56752042  T      -0.00218088      -0.00130611       0.00617929
Ru       6.79742177       0.78696095      19.55391334  T       0.00448665      -0.00206260       0.00542090
Ru       4.07984952       5.49424042      19.55328920  T       0.00093004       0.00340214       0.00742003
Ru       9.52107156       5.49794727      19.56358536  T      -0.00221460      -0.00089585       0.00024762
Ru       6.79786415       5.49847593      19.56368472  T       0.00297626      -0.00066753       0.00117616
Ru       8.15994690       3.13840224      19.56377448  T       0.00102749       0.00180732      -0.00022011
Ru       0.00000000       0.00000000      17.47074105  F       0.00422689       0.00709413      -1.21326984
Ru       1.35980778       2.35525603      17.47074105  F       0.05063350       0.04289518      -1.15402115
Ru       2.71961556       0.00000000      17.47074105  F       0.06088198       0.02706473      -1.15464602
Ru       4.07942334       2.35525603      17.47074105  F       0.00154849       0.00292676      -1.03416734
Ru       5.43923120       0.00000000      17.47074105  F      -0.05882988       0.02520337      -1.15720776
Ru       2.71961560       4.71051213      17.47074105  F      -0.01251070      -0.05980522      -1.15872077
Ru       8.15884680       4.71051213      17.47074105  F       0.00210019       0.00311227      -1.20681269
Ru       6.79903898       2.35525603      17.47074105  F      -0.04455556       0.04580690      -1.15454023
Ru       5.43923116       4.71051213      17.47074105  F       0.01774941      -0.05851991      -1.15710463
Ru       1.35980778       0.78508534      15.28689842  F       0.00909195       0.00493086       1.13689446
Ru       4.07942334       0.78508534      15.28689842  F       0.00020692       0.01213731       1.17266848
Ru       2.71961556       3.14034137      15.28689842  F       0.01123023      -0.00575585       1.17289902
Ru       5.43923112       3.14034137      15.28689842  F      -0.01229375      -0.00656734       1.17329425
Ru       6.79903898       0.78508534      15.28689842  F      -0.00955727       0.00431622       1.13700604
Ru       4.07942338       5.49559747      15.28689842  F      -0.00075068      -0.00995195       1.13668887
Ru       9.51865458       5.49559747      15.28689842  F      -0.00902619      -0.00524977       1.16287236
Ru       6.79903894       5.49559747      15.28689842  F       0.00789385      -0.00521385       1.16239837
Ru       8.15884676       3.14034137      15.28689842  F      -0.00042541       0.00918709       1.16200680
N        4.11218853       2.40552402       2.06313553  T      -0.00664153      -0.00998892      -0.01397929
H        4.13049825       1.45358707       2.44232334  T      -0.00676615      -0.01062740      -0.03603273
H        4.94285402       2.90431257       2.39880219  T      -0.00633881      -0.00971731      -0.04283930
H        3.28084117       2.88463928       2.42383536  T      -0.00763776      -0.00995980      -0.03967798
40
Lattice="8.15884676 0.0 0.0 4.07942338 7.06576816 0.0 0.0 0.0 21.83842631" Properties=species:S:1:pos:R:3:move_mask:L:1:forces:R:3 system=adsorbed source=NH3diss BEXT=0.1 energy=-359.37274717 stress="0.05262431529421554 -4.192621408147812e-06 0.00012680239953729826 -4.192621408147812e-06 0.05264894625530165 0.00019381677148986646 0.00012680239953729826 0.00019381677148986646 0.01963902079303141" free_energy=-359.37225601 pbc="T T T"
Ru       0.00059001       0.00091438      21.60926697  T      -0.00066703       0.00047590       0.00835724
Ru       9.49335473       2.35331104      21.59667187  T       0.00232099       0.00048829       0.00890331
Ru       6.78463515       7.04739038      21.59746570  T       0.00189054       0.00209277       0.00875392
Ru       4.08328076       2.36120866      21.67774354  T      -0.00030331      -0.00054513      -0.00105695
Ru       9.53558704       7.04564952      21.59623467  T       0.00039747       0.00028089       0.00881660
Ru      10.86733794       4.73881152      21.59486409  T       0.00163524       0.00086505       0.00803466
Ru       8.15957461       4.71165700      21.60162679  T      -0.00079641      -0.00060509       0.01087475
Ru       6.82941812       2.35356590      21.59517048  T      -0.00045864       0.00129218       0.00874927
Ru       5.45317169       4.74024248      21.59413010  T       0.00024856       0.00070246       0.00862609