2
Lattice="25.0 0.0 0.0 0.0 25.0 0.0 0.0 0.0 25.0" Properties=species:S:1:pos:R:3:forces:R:3 energy=-6.75104571 stress="6.796210766427881e-06 -0.0 -0.0 -0.0 6.796210766427881e-06 -0.0 -0.0 -0.0 8.94341473591424e-06" free_energy=-6.74829266 pbc="T T T"
H       12.61709975      12.57159150      12.58165800      -0.00000000       0.00000000       0.00574566
H       12.61709975      12.57159150      11.83112750       0.00000000       0.00000000      -0.00574566
