4
Lattice="25.0 0.0 0.0 0.0 25.0 0.0 0.0 0.0 25.0" Properties=species:S:1:pos:R:3:forces:R:3 energy=-19.5137603 stress="4.420058255789523e-05 -0.0 -0.0 -0.0 5.121734329079532e-05 5.987167629003516e-07 -0.0 5.987167629003516e-07 4.427492517309363e-05" free_energy=-19.51241767 pbc="T T T"
N       12.41137125      11.48501100      12.62091550       0.00000000      -0.00770088      -0.00061578
H       12.41137125      11.17642700      11.64483225       0.00000000       0.00420324      -0.01763913
H       13.23017525      11.05288075      13.05767200       0.01559876       0.00174882       0.00912746
H       11.59256750      11.05288075      13.05767200      -0.01559876       0.00174882       0.00912746
