4
Lattice="25.0 0.0 0.0 0.0 25.0 0.0 0.0 0.0 25.0" Properties=species:S:1:pos:R:3:forces:R:3 system=adsorbate source=NH3mag2 BEXT=0.1 energy=-19.51439353 stress="4.616550325336017e-05 -0.0 -0.0 -0.0 5.142376872211566e-05 4.4730399301554964e-07 -0.0 4.4730399301554964e-07 4.6191062233230666e-05" free_energy=-19.51310913 pbc="T T T"
N       12.41137125      11.48441925      12.62086825       0.00000000      -0.01807415      -0.00147563
H       12.41137125      11.17669500      11.64404075       0.00000000       0.00568793       0.00498980
H       13.23089375      11.05304275      13.05809125      -0.00412503       0.00619311      -0.00175709
H       11.59184875      11.05304275      13.05809125       0.00412503       0.00619311      -0.00175709
