36
Lattice="8.15884676 0.0 0.0 4.07942338 7.06576816 0.0 0.0 0.0 21.83842631" Properties=species:S:1:pos:R:3:move_mask:L:1:forces:R:3 energy=-340.39213067 stress="0.04791307147002903 1.314269583429937e-05 7.22145726619256e-05 1.314269583429937e-05 0.047916246663034574 0.0001064505110022387 7.22145726619256e-05 0.0001064505110022387 0.014550932517264704" free_energy=-340.40003217 pbc="T T T"
Ru       0.00094365       0.00137231      21.61412427  T      -0.00133981      -0.00290148       0.01085807
Ru       1.36088148       2.35654779      21.61434047  T      -0.00315276      -0.00213130       0.00975989
Ru       2.72058915       0.00159898      21.61449531  T      -0.00203766      -0.00435423       0.00877995
Ru       4.08050810       2.35681679      21.61501659  T      -0.00322683      -0.00317456       0.00465797
Ru       5.44017673       0.00151306      21.61451693  T      -0.00150860      -0.00344404       0.00815080
Ru       2.72060939       4.71206413      21.61453592  T      -0.00239942      -0.00267256       0.00896444
Ru       8.15980106       4.71187455      21.61414174  T      -0.00169839      -0.00353985       0.01227739
Ru       6.80005304       2.35655020      21.61440271  T      -0.00111143      -0.00205598       0.00961018
Ru       5.44020451       4.71212751      21.61454400  T      -0.00187753      -0.00329659       0.00893683
Ru       1.36072332       0.78619474      19.56562310  T      -0.00258663      -0.00117607       0.00651528
Ru       4.08019472       0.78652118      19.56588691  T      -0.00080137      -0.00377057       0.00478371
Ru       2.72062771       3.14138039      19.56596859  T      -0.00301153       0.00039325       0.00278269
Ru       5.43979412       3.14137220      19.56597929  T       0.00216108       0.00091242       0.00217218
Ru       6.79952969       0.78615913      19.56562463  T       0.00178101      -0.00083877       0.00589885
Ru       4.08013499       5.49644296      19.56575435  T      -0.00016316       0.00145326       0.00378953
Ru       9.51954842       5.49684140      19.56586420  T      -0.00253233      -0.00292490       0.00360585
Ru       6.79962964       5.49687341      19.56585241  T       0.00147717      -0.00289829       0.00368718
Ru       8.15959248       3.14119958      19.56582227  T      -0.00055993       0.00202939       0.00253687
Ru       0.00000000       0.00000000      17.47074105  F       0.00235701       0.00325319      -0.96637294
Ru       1.35980778       2.35525603      17.47074105  F       0.00335348       0.00428545      -0.96613089
Ru       2.71961556       0.00000000      17.47074105  F       0.00345881       0.00401024      -0.96660098
Ru       4.07942334       2.35525603      17.47074105  F       0.00263034       0.00419931      -0.96677780
Ru       5.43923120       0.00000000      17.47074105  F       0.00136093       0.00377468      -0.96684087
Ru       2.71961560       4.71051213      17.47074105  F       0.00217437       0.00292539      -0.96628562
Ru       8.15884680       4.71051213      17.47074105  F       0.00244904       0.00368041      -0.96484371
Ru       6.79903898       2.35525603      17.47074105  F       0.00169509       0.00417539      -0.96614481
Ru       5.43923116       4.71051213      17.47074105  F       0.00266941       0.00296741      -0.96606051
Ru       1.35980778       0.78508534      15.28689842  F       0.00021048       0.00022659       0.95298406
Ru       4.07942334       0.78508534      15.28689842  F       0.00003395       0.00046424       0.95225450
Ru       2.71961556       3.14034137      15.28689842  F       0.00027825      -0.00020329       0.95281719
Ru       5.43923112       3.14034137      15.28689842  F      -0.00027271      -0.00025240       0.95306830
Ru       6.79903898       0.78508534      15.28689842  F      -0.00011567       0.00008005       0.95298925
Ru       4.07942338       5.49559747      15.28689842  F      -0.00006836       0.00017065       0.95353513
Ru       9.51865458       5.49559747      15.28689842  F       0.00012084       0.00033483       0.95328114
Ru       6.79903894       5.49559747      15.28689842  F       0.00007755       0.00043483       0.95361849
Ru       8.15884676       3.14034137      15.28689842  F       0.00017533      -0.00013611       0.95374238
