36
Lattice="8.15884676 0.0 0.0 4.07942338 7.06576816 0.0 0.0 0.0 21.83842631" Properties=species:S:1:pos:R:3:move_mask:L:1:forces:R:3 energy=-347.93551672999996 stress="0.0347558930002332 1.0786588554369698e-05 4.485295133324168e-05 1.0786588554369698e-05 0.03474654719540394 6.83548983165889e-05 4.485295133324168e-05 6.83548983165889e-05 0.00923959649505329" free_energy=-347.94350111 pbc="T T T"
Ru       0.00099444       0.00160570      21.64323533  T      -0.00042266      -0.00156341       0.02410093
Ru       9.51963854       2.35672606      21.64334103  T       0.00001872       0.00012255       0.02371074
Ru       2.72065806       0.00161319      21.64332181  T      -0.00057922      -0.00148947       0.02405599
Ru       4.08068286       2.35698806      21.64400819  T      -0.00427472      -0.00481485       0.01643246
Ru       5.44035296       0.00148579      21.64338689  T      -0.00212009      -0.00043761       0.02329674
Ru      10.87942204       4.71233065      21.64327988  T      -0.00093031      -0.00368516       0.02328574
Ru       8.15991063       4.71212765      21.64304446  T      -0.00034745      -0.00114182       0.02548961
Ru       6.80017946       2.35670246      21.64340589  T      -0.00189673      -0.00045653       0.02233376
Ru       5.44032591       4.71230231      21.64334168  T      -0.00140126      -0.00327412       0.02232603
Ru       1.36048248       0.78594546      19.56690698  T      -0.00037665       0.00122489       0.00564979
Ru       4.08006083       0.78609158      19.56698691  T      -0.00011981      -0.00000884       0.00605076
Ru       2.72031967       3.14120481      19.56697359  T       0.00016729       0.00023028       0.00667945
Ru       5.43971820       3.14112129      19.56693057  T       0.00180677       0.00214434       0.00728056
Ru       6.79956502       0.78592398      19.56686549  T       0.00155016       0.00168788       0.00609825
Ru       4.08001261       5.49647829      19.56690109  T       0.00112404       0.00087602       0.00548907
Ru       9.51931178       5.49657905      19.56673905  T       0.00027868       0.00036582       0.00655483
Ru       6.79971519       5.49662053      19.56691179  T      -0.00110833      -0.00156100       0.00389594
Ru       8.15952292       3.14129363      19.56696638  T      -0.00114072      -0.00140172       0.00379951
Ru       0.00000000       0.00000000      17.47074105  F       0.00140937       0.00198850      -0.65062952
Ru       1.35980778       2.35525603      17.47074105  F       0.00139688       0.00224467      -0.65031258
Ru       2.71961556       0.00000000      17.47074105  F       0.00173021       0.00214788      -0.65086465
Ru       4.07942334       2.35525603      17.47074105  F       0.00134343       0.00213592      -0.65071858
Ru       5.43923120       0.00000000      17.47074105  F       0.00122363       0.00240472      -0.65121829
Ru       2.71961560       4.71051213      17.47074105  F       0.00172357       0.00184662      -0.65085883
Ru       8.15884680       4.71051213      17.47074105  F       0.00122224       0.00203374      -0.65091880
Ru       6.79903898       2.35525603      17.47074105  F       0.00166898       0.00233011      -0.65002725
Ru       5.43923116       4.71051213      17.47074105  F       0.00169150       0.00199008      -0.65006730
Ru       1.35980778       0.78508534      15.28689842  F      -0.00019411      -0.00054221       0.62224863
Ru       4.07942334       0.78508534      15.28689842  F      -0.00040513      -0.00043615       0.62182814
Ru       2.71961556       3.14034137      15.28689842  F      -0.00023009      -0.00088053       0.62192327
Ru       5.43923112       3.14034137      15.28689842  F      -0.00071942      -0.00093538       0.62217917
Ru       6.79903898       0.78508534      15.28689842  F      -0.00063245      -0.00068090       0.62222032
Ru       4.07942338       5.49559747      15.28689842  F      -0.00051929      -0.00076957       0.62242613
Ru       9.51865458       5.49559747      15.28689842  F      -0.00033517      -0.00051609       0.62195109
Ru       6.79903894       5.49559747      15.28689842  F      -0.00034113      -0.00043873       0.62220952
Ru       8.15884676       3.14034137      15.28689842  F      -0.00026074      -0.00073994       0.62209936
