20
Lattice="5.7530685 0.0 0.0 2.87653425 4.98230319 0.0 0.0 0.0 23.48680104" Properties=species:S:1:pos:R:3:move_mask:L:1:forces:R:3 energy=-74.43779163999999 stress="0.007350055572599702 0.00035826727374999777 -0.0023667111607873987 0.00035826727374999777 0.007883585639698782 0.0008126375725978889 -0.0023667111607873987 0.0008126375725978889 0.004123649024850382" free_energy=-74.43788769 pbc="T T T"
Ag       3.88187187       2.47901989      23.38799019  T      -0.00834788       0.01047255      -0.00065586
Ag       5.66108254       0.17038735      23.44533979  T       0.00220923       0.01493913       0.00114220
Ag       7.77657702       3.63551454       2.18534960  T       0.04607870      -0.01524868      -0.00324997
Ag       5.62917404       4.87947722      23.48222229  T      -0.00171422       0.00748633       0.00017108
Ag       5.67538424       3.28716660      21.18781102  T      -0.00086891       0.00440938       0.00136519
Ag       1.39187386       0.85711349      21.17147172  T       0.00014335       0.00425055      -0.00033011
Ag       4.22347366       0.83194808      21.13693579  T      -0.00045829       0.00513631       0.00186658
Ag       2.76848639       3.36413342      21.10379686  T      -0.00122483       0.00542558       0.00021801
Ag       7.19134003       4.15192001      18.78943989  F      -0.13051734       0.02557805       0.03057916
Ag       2.87653997       1.66077001      18.78943989  F      -0.06625993      -0.01325407       0.02043458
Ag       4.31480002       4.15192001      18.78943989  F       0.00227552       0.02888454       0.07653669
Ag       5.75307002       1.66077001      18.78943989  F      -0.03044668       0.00691363       0.14265196
Ag       4.31479999       2.49115000      16.44076002  F      -0.00185468      -0.00923366      -0.03813220
Ag       0.00000000       0.00000000      16.44076002  F       0.00305041       0.00772716      -0.06841657
Ag       1.43827000       2.49115000      16.44076002  F       0.00443522      -0.01121764      -0.07415559
Ag       2.87652999       0.00000000      16.44076002  F      -0.00089525       0.01141700      -0.04433201
C        5.17019593       2.85261864       2.39434479  T       0.08080631      -0.05923234       0.00360430
O        5.63174609       4.07902761       2.13265156  T       0.04102924      -0.01891268      -0.00529535
O        3.88075209       2.60434863       2.21426397  T       0.04201262      -0.01647212       0.00358137
O        5.94674503       1.93646889       2.75895295  T       0.02054741       0.01093098      -0.04758346
20
Lattice="5.7530685 0.0 0.0 2.87653425 4.98230319 0.0 0.0 0.0 23.48680104" Properties=species:S:1:pos:R:3:move_mask:L:1:forces:R:3 energy=-74.4382996 stress="0.007436514910603795 0.0004151705195073085 -0.002395463721149313 0.0004151705195073085 0.007937821102176452 0.000853087944397497 -0.002395463721149313 0.000853087944397497 0.004271542170290044" free_energy=-74.43839763 pbc="T T T"
Ag       3.88171078       2.47922197      23.38797751  T      -0.00818416       0.01112965       0.00209774
Ag       5.66112517       0.17067562      23.44536187  T       0.00160831       0.01368209       0.00077155
Ag       7.77746621       3.63522029       2.18528666  T       0.04761916      -0.01380241      -0.00505266
Ag       5.62914096       4.87962171      23.48222558  T      -0.00138432       0.00633677       0.00209706
Ag       5.67536744       3.28725170      21.18783733  T      -0.00078870       0.00439725       0.00092321
Ag       1.39187662       0.85719550      21.17146538  T       0.00023412       0.00438637      -0.00066375
Ag       4.22346483       0.83204717      21.13697173  T      -0.00052448       0.00517969       0.00131154
Ag       2.76846271       3.36423810      21.10380108  T      -0.00140612       0.00538255      -0.00038515
Ag       7.19134003       4.15192001      18.78943989  F      -0.13052462       0.02560968       0.03126543
Ag       2.87653997       1.66077001      18.78943989  F      -0.06625927      -0.01320752       0.02099670
Ag       4.31480002       4.15192001      18.78943989  F       0.00227561       0.02892508       0.07706229
Ag       5.75307002       1.66077001      18.78943989  F      -0.03042906       0.00691848       0.14323011
Ag       4.31479999       2.49115000      16.44076002  F      -0.00183640      -0.00931125      -0.03708804
Ag       0.00000000       0.00000000      16.44076002  F       0.00309346       0.00774403      -0.06744453
Ag       1.43827000       2.49115000      16.44076002  F       0.00444130      -0.01132034      -0.07320812
Ag       2.87652999       0.00000000      16.44076002  F      -0.00090472       0.01142382      -0.04338612
C        5.17175525       2.85147560       2.39441431  T       0.01075976       0.01869630      -0.02977050
O        5.63253780       4.07866266       2.13254939  T       0.04809568      -0.01984291      -0.00628268
O        3.88156281       2.60403076       2.21433302  T       0.04477719      -0.01906008       0.00225005
O        5.94714151       1.93667979       2.75803485  T       0.07933725      -0.06326725      -0.01872412
20
Lattice="5.7530685 0.0 0.0 2.87653425 4.98230319 0.0 0.0 0.0 23.48680104" Properties=species:S:1:pos:R:3:move_mask:L:1:forces:R:3 energy=-74.43869516 stress="0.007497306666478603 0.00032256946786674777 -0.002356871240646679 0.00032256946786674777 0.008065828350152394 0.0008077108810599366 -0.002356871240646679 0.0008077108810599366 0.004259820297834669" free_energy=-74.43878791 pbc="T T T"
Ag       3.88148201       2.47953311      23.38803622  T      -0.00869269       0.01069879      -0.00078853
Ag       5.66117013       0.17105811      23.44538348  T       0.00193716       0.01484360       0.00271850
Ag       7.77879736       3.63483446       2.18514550  T       0.04264377      -0.01675367      -0.00301205
Ag       5.62910227       4.87979883      23.48228406  T      -0.00157164       0.00759478       0.00059055
Ag       5.67534538       3.28737461      21.18786316  T      -0.00082146       0.00443666       0.00116926
Ag       1.39188324       0.85731816      21.17144683  T       0.00013022       0.00435558      -0.00060971
Ag       4.22345015       0.83219196      21.13700837  T      -0.00049961       0.00505953       0.00155285
Ag       2.76842342       3.36438857      21.10379028  T      -0.00134929       0.00549215       0.00014406
Ag       7.19134003       4.15192001      18.78943989  F      -0.13065462       0.02587134       0.03086612
Ag       2.87653997       1.66077001      18.78943989  F      -0.06626454      -0.01303887       0.02068215
Ag       4.31480002       4.15192001      18.78943989  F       0.00220811       0.02904067       0.07673730
Ag       5.75307002       1.66077001      18.78943989  F      -0.03059883       0.00705260       0.14293511
Ag       4.31479999       2.49115000      16.44076002  F      -0.00193498      -0.00925287      -0.03757597
Ag       0.00000000       0.00000000      16.44076002  F       0.00301433       0.00782377      -0.06791157
Ag       1.43827000       2.49115000      16.44076002  F       0.00439605      -0.01126479      -0.07367432
Ag       2.87652999       0.00000000      16.44076002  F      -0.00097197       0.01152683      -0.04382319
C        5.17205607       2.85199824       2.39358217  T       0.11625986      -0.09697076       0.01799603
O        5.63388229       4.07810793       2.13237371  T       0.04133391      -0.01354880      -0.00771001
O        3.88281456       2.60349795       2.21439596  T       0.03770234      -0.01608404       0.00248626
O        5.94935934       1.93491122       2.75751133  T      -0.00626613       0.04311751      -0.06277282
20
Lattice="5.7530685 0.0 0.0 2.87653425 4.98230319 0.0 0.0 0.0 23.48680104" Properties=species:S:1:pos:R:3:move_mask:L:1:forces:R:3 energy=-74.43889768 stress="0.007410513033245729 0.0004898494771494796 -0.0024226416361398952 0.0004898494771494796 0.00787540222856309 0.0008883766255990545 -0.0024226416361398952 0.0008883766255990545 0.0043261474733909695" free_energy=-74.43898601 pbc="T T T"
Ag       3.88128695       2.47977321      23.38801861  T      -0.00762328       0.01097947       0.00371943
Ag       5.66121363       0.17139123      23.44544454  T       0.00136829       0.01298973      -0.00033040
Ag       7.77975444       3.63445849       2.18507786  T       0.04905755      -0.01076798      -0.00622723
Ag       5.62906703       4.87996927      23.48229745  T      -0.00131634       0.00572174       0.00292655
Ag       5.67532697       3.28747416      21.18788947  T      -0.00069045       0.00431239       0.00105282
Ag       1.39188609       0.85741587      21.17143321  T       0.00036568       0.00419392      -0.00028547
Ag       4.22343897       0.83230551      21.13704336  T      -0.00044077       0.00500445       0.00147130
Ag       2.76839316       3.36451183      21.10379357  T      -0.00130064       0.00523972      -0.00028109
Ag       7.19134003       4.15192001      18.78943989  F      -0.13058774       0.02575004       0.03156126
Ag       2.87653997       1.66077001      18.78943989  F      -0.06618401      -0.01310957       0.02134607
Ag       4.31480002       4.15192001      18.78943989  F       0.00235332       0.02896086       0.07739604
Ag       5.75307002       1.66077001      18.78943989  F      -0.03040355       0.00705224       0.14357426
Ag       4.31479999       2.49115000      16.44076002  F      -0.00175768      -0.00936508      -0.03765567
Ag       0.00000000       0.00000000      16.44076002  F       0.00315482       0.00766948      -0.06806568
Ag       1.43827000       2.49115000      16.44076002  F       0.00449829      -0.01136155      -0.07387487
Ag       2.87652999       0.00000000      16.44076002  F      -0.00083452       0.01135446      -0.04398217
C        5.17466518       2.84982202       2.39398591  T      -0.05537597       0.09066494      -0.06135806
O        5.63480989       4.07780386       2.13220061  T       0.04924775      -0.02835473      -0.00373097
O        3.88366064       2.60313698       2.21445163  T       0.05542105      -0.01920970       0.00297529
O        5.94921874       1.93587889       2.75610259  T       0.13104820      -0.12772484       0.00976861
20
Lattice="5.7530685 0.0 0.0 2.87653425 4.98230319 0.0 0.0 0.0 23.48680104" Properties=species:S:1:pos:R:3:move_mask:L:1:forces:R:3 energy=-74.43920689000001 stress="0.0074703867941998126 0.0003449890809940847 -0.002365916466879455 0.0003449890809940847 0.008029623914731885 0.0008219997426640767 -0.002365916466879455 0.0008219997426640767 0.004254645506308964" free_energy=-74.43930133 pbc="T T T"
Ag       3.88118558       2.47991919      23.38806793  T      -0.00856227       0.01070598       0.00005466
Ag       5.66123178       0.17156397      23.44544008  T       0.00190125       0.01463240       0.00270785
Ag       7.78040678       3.63431530       2.18499519  T       0.04390155      -0.01619322      -0.00336204
Ag       5.62904952       4.88004535      23.48233620  T      -0.00148579       0.00739826       0.00107497
Ag       5.67531779       3.28753151      21.18790356  T      -0.00075605       0.00443451       0.00115503
Ag       1.39189098       0.85747167      21.17142945  T       0.00015497       0.00433738      -0.00062073
Ag       4.22343310       0.83237207      21.13706286  T      -0.00045287       0.00506823       0.00149558
Ag       2.76837584       3.36458148      21.10378981  T      -0.00133996       0.00551768       0.00007906
Ag       7.19134003       4.15192001      18.78943989  F      -0.13069805       0.02600361       0.03084651
Ag       2.87653997       1.66077001      18.78943989  F      -0.06619181      -0.01295398       0.02066258
Ag       4.31480002       4.15192001      18.78943989  F       0.00226502       0.02908646       0.07671349
Ag       5.75307002       1.66077001      18.78943989  F      -0.03059966       0.00715552       0.14293628
Ag       4.31479999       2.49115000      16.44076002  F      -0.00188256      -0.00927346      -0.03762049
Ag       0.00000000       0.00000000      16.44076002  F       0.00306284       0.00780190      -0.06799854
Ag       1.43827000       2.49115000      16.44076002  F       0.00443630      -0.01128798      -0.07374273
Ag       2.87652999       0.00000000      16.44076002  F      -0.00092557       0.01150074      -0.04390582
C        5.17392884       2.85102764       2.39317021  T       0.09270259      -0.07155052       0.00761240
O        5.63546479       4.07742685       2.13215106  T       0.04306509      -0.01497054      -0.00735638
O        3.88439764       2.60288154       2.21449132  T       0.03866343      -0.01696114       0.00215638
O        5.95096131       1.93418047       2.75623247  T       0.01274155       0.01954817      -0.05288806
20
Lattice="5.7530685 0.0 0.0 2.87653425 4.98230319 0.0 0.0 0.0 23.48680104" Properties=species:S:1:pos:R:3:move_mask:L:1:forces:R:3 energy=-74.43950448 stress="0.007438656428558467 0.0004255494251685938 -0.0023970361008528334 0.0004255494251685938 0.007949692021869752 0.0008621346561094446 -0.0023970361008528334 0.0008621346561094446 0.004301410837313849" free_energy=-74.43959321 pbc="T T T"
Ag       3.88104673       2.48009283      23.38806887  T      -0.00806350       0.01088164       0.00211953
Ag       5.66126261       0.17180122      23.44548400  T       0.00162587       0.01370332       0.00092405
Ag       7.78111869       3.63405269       2.18494070  T       0.04670120      -0.01321453      -0.00512756
Ag       5.62902541       4.88016533      23.48235381  T      -0.00141923       0.00639010       0.00214594
Ag       5.67530554       3.28760345      21.18792211  T      -0.00074534       0.00438239       0.00116411
Ag       1.39189351       0.85754202      21.17141935  T       0.00028212       0.00420852      -0.00040007
Ag       4.22342579       0.83245428      21.13708705  T      -0.00047792       0.00499379       0.00154927
Ag       2.76835410       3.36467096      21.10379122  T      -0.00131191       0.00532202      -0.00004497
Ag       7.19134003       4.15192001      18.78943989  F      -0.13072490       0.02596037       0.03146427
Ag       2.87653997       1.66077001      18.78943989  F      -0.06619786      -0.01297096       0.02128067
Ag       4.31480002       4.15192001      18.78943989  F       0.00229310       0.02905170       0.07731445
Ag       5.75307002       1.66077001      18.78943989  F      -0.03055173       0.00716979       0.14353596
Ag       4.31479999       2.49115000      16.44076002  F      -0.00184292      -0.00933367      -0.03755483
Ag       0.00000000       0.00000000      16.44076002  F       0.00308618       0.00771834      -0.06796870
Ag       1.43827000       2.49115000      16.44076002  F       0.00444209      -0.01133939      -0.07375630
Ag       2.87652999       0.00000000      16.44076002  F      -0.00090290       0.01141203      -0.04387054
C        5.17543215       2.84986731       2.39329352  T       0.01093947       0.01766294      -0.03051372
O        5.63616319       4.07718406       2.13203174  T       0.04690599      -0.02194708      -0.00557088
O        3.88502458       2.60260646       2.21452608  T       0.04810101      -0.01834055       0.00234723
O        5.95116793       1.93449749       2.75537497  T       0.07786118      -0.06171077      -0.01903792
20
Lattice="5.7530685 0.0 0.0 2.87653425 4.98230319 0.0 0.0 0.0 23.48680104" Properties=species:S:1:pos:R:3:move_mask:L:1:forces:R:3 energy=-74.43979168999999 stress="0.007481092330516674 0.0003304068996685737 -0.0023605528509781635 0.0003304068996685737 0.008057184090948882 0.0008199709838132723 -0.0023605528509781635 0.0008199709838132723 0.004265951712981082" free_energy=-74.4398835 pbc="T T T"
Ag       3.88084046       2.48037119      23.38812312  T      -0.00858498       0.01072339      -0.00044834
Ag       5.66130421       0.17215178      23.44550772  T       0.00191966       0.01486811       0.00297940
Ag       7.78231334       3.63371464       2.18480940  T       0.04313468      -0.01670686      -0.00337407
Ag       5.62898908       4.88032880      23.48240854  T      -0.00157394       0.00743388       0.00087851
Ag       5.67528644       3.28771555      21.18795194  T      -0.00082210       0.00446559       0.00117404
Ag       1.39190070       0.85764964      21.17140901  T       0.00018314       0.00429697      -0.00060655
Ag       4.22341354       0.83258202      21.13712674  T      -0.00054928       0.00500116       0.00152911
Ag       2.76832058       3.36480713      21.10379004  T      -0.00135181       0.00551551       0.00013917
Ag       7.19134003       4.15192001      18.78943989  F      -0.13085688       0.02620289       0.03086839
Ag       2.87653997       1.66077001      18.78943989  F      -0.06621184      -0.01282110       0.02071352
Ag       4.31480002       4.15192001      18.78943989  F       0.00221229       0.02916111       0.07673489
Ag       5.75307002       1.66077001      18.78943989  F      -0.03073256       0.00729443       0.14301820
Ag       4.31479999       2.49115000      16.44076002  F      -0.00194713      -0.00927533      -0.03759869
Ag       0.00000000       0.00000000      16.44076002  F       0.00299879       0.00780042      -0.06800429
Ag       1.43827000       2.49115000      16.44076002  F       0.00437427      -0.01129052      -0.07373802
Ag       2.87652999       0.00000000      16.44076002  F      -0.00098662       0.01150499      -0.04388886
C        5.17571200       2.85031916       2.39251305  T       0.10929465      -0.08899939       0.01471779
O        5.63736307       4.07662261       2.13188918  T       0.04217060      -0.01380734      -0.00745732
O        3.88625507       2.60213728       2.21458621  T       0.03716308      -0.01658542       0.00222366
O        5.95315970       1.93291880       2.75488785  T       0.00016601       0.03521752      -0.05986054
20
Lattice="5.7530685 0.0 0.0 2.87653425 4.98230319 0.0 0.0 0.0 23.48680104" Properties=species:S:1:pos:R:3:move_mask:L:1:forces:R:3 energy=-74.44008547 stress="0.007404320076819336 0.0004891193391704246 -0.0024207731155528795 0.0004891193391704246 0.007880899206789874 0.0008945000516137853 -0.0024207731155528795 0.0008945000516137853 0.0043311981088171424" free_energy=-74.44017223 pbc="T T T"
Ag       3.88063711       2.48062513      23.38811256  T      -0.00750022       0.01095277       0.00374986
Ag       5.66134972       0.17250393      23.44557818  T       0.00142533       0.01316529      -0.00007252
Ag       7.78333495       3.63331899       2.18472955  T       0.04908875      -0.01093122      -0.00643704
Ag       5.62895186       4.88050487      23.48242944  T      -0.00135734       0.00571462       0.00287481
Ag       5.67526702       3.28782133      21.18797989  T      -0.00073849       0.00431384       0.00099809
Ag       1.39190504       0.85775142      21.17139469  T       0.00036308       0.00415940      -0.00030615
Ag       4.22340051       0.83270045      21.13716291  T      -0.00051205       0.00497495       0.00144451
Ag       2.76828854       3.36493776      21.10379333  T      -0.00134005       0.00522227      -0.00027727
Ag       7.19134003       4.15192001      18.78943989  F      -0.13082845       0.02611531       0.03164412
Ag       2.87653997       1.66077001      18.78943989  F      -0.06616437      -0.01286184       0.02147912
Ag       4.31480002       4.15192001      18.78943989  F       0.00231945       0.02910592       0.07747620
Ag       5.75307002       1.66077001      18.78943989  F      -0.03058187       0.00732259       0.14375654
Ag       4.31479999       2.49115000      16.44076002  F      -0.00180851      -0.00936459      -0.03761893
Ag       0.00000000       0.00000000      16.44076002  F       0.00309907       0.00766871      -0.06809205
Ag       1.43827000       2.49115000      16.44076002  F       0.00444099      -0.01135958      -0.07387463
Ag       2.87652999       0.00000000      16.44076002  F      -0.00088453       0.01135830      -0.04398176
C        5.17830045       2.84821139       2.39286160  T      -0.05348288       0.08802526      -0.05998152
O        5.63836184       4.07629562       2.13171256  T       0.04914260      -0.02884066      -0.00368066
O        3.88713526       2.60174453       2.21463882  T       0.05622602      -0.01925780       0.00292022
O        5.95316365       1.93375289       2.75347019  T       0.12909347      -0.12548353       0.00797907
20
Lattice="5.7530685 0.0 0.0 2.87653425 4.98230319 0.0 0.0 0.0 23.48680104" Properties=species:S:1:pos:R:3:move_mask:L:1:forces:R:3 energy=-74.44036102000001 stress="0.007469442104344555 0.00033575797013652196 -0.0023616874761976307 0.00033575797013652196 0.00804714376843315 0.0008256125403574483 -0.0023616874761976307 0.0008256125403574483 0.004261173569360325" free_energy=-74.44045283 pbc="T T T"
Ag       3.88052904       2.48078292      23.38816657  T      -0.00841377       0.01064564      -0.00020826
Ag       5.66137023       0.17269360      23.44557724  T       0.00206400       0.01489279       0.00313761
Ag       7.78404208       3.63316150       2.18463678  T       0.04385946      -0.01670729      -0.00344271
Ag       5.62893230       4.88058718      23.48247078  T      -0.00151781       0.00736255       0.00097413
Ag       5.67525635       3.28788346      21.18799422  T      -0.00077671       0.00441478       0.00110922
Ag       1.39191031       0.85781136      21.17139046  T       0.00020332       0.00433477      -0.00062170
Ag       4.22339317       0.83277215      21.13718381  T      -0.00050573       0.00495745       0.00143383
Ag       2.76826927       3.36501300      21.10378934  T      -0.00130261       0.00542738       0.00011468
Ag       7.19134003       4.15192001      18.78943989  F      -0.13091392       0.02636127       0.03089463
Ag       2.87653997       1.66077001      18.78943989  F      -0.06614232      -0.01271629       0.02076725
Ag       4.31480002       4.15192001      18.78943989  F       0.00225710       0.02921676       0.07676667
Ag       5.75307002       1.66077001      18.78943989  F      -0.03075650       0.00741045       0.14308959
Ag       4.31479999       2.49115000      16.44076002  F      -0.00190884      -0.00929013      -0.03760735
Ag       0.00000000       0.00000000      16.44076002  F       0.00303354       0.00778597      -0.06804502
Ag       1.43827000       2.49115000      16.44076002  F       0.00440765      -0.01130452      -0.07376692
Ag       2.87652999       0.00000000      16.44076002  F      -0.00094992       0.01149129      -0.04392590
C        5.17752997       2.84947944       2.39199752  T       0.10365822      -0.08348097       0.01261888
O        5.63906978       4.07588014       2.13165948  T       0.04241741      -0.01416578      -0.00753422
O        3.88794521       2.60146706       2.21468086  T       0.03736146      -0.01691116       0.00217151
O        5.95502335       1.93194516       2.75358504  T       0.00392598       0.03027506      -0.05792591
20
Lattice="5.7530685 0.0 0.0 2.87653425 4.98230319 0.0 0.0 0.0 23.48680104" Properties=species:S:1:pos:R:3:move_mask:L:1:forces:R:3 energy=-74.44064408 stress="0.007433360526789682 0.00042446270977317715 -0.0023958385175308133 0.00042446270977317715 0.007957611167509055 0.0008693193134378309 -0.0023958385175308133 0.0008693193134378309 0.0043071491996645676" free_energy=-74.44073091 pbc="T T T"
Ag       3.88040716       2.48093723      23.38816352  T      -0.00780457       0.01065888       0.00204252
Ag       5.66140011       0.17290939      23.44562257  T       0.00177152       0.01384084       0.00116171
Ag       7.78467768       3.63291936       2.18458698  T       0.04693810      -0.01343424      -0.00527133
Ag       5.62891026       4.88069390      23.48248487  T      -0.00140043       0.00630533       0.00214356
Ag       5.67524507       3.28794743      21.18801019  T      -0.00073230       0.00433564       0.00111324
Ag       1.39191324       0.85787414      21.17138130  T       0.00030586       0.00423225      -0.00038346
Ag       4.22338578       0.83284394      21.13720448  T      -0.00049824       0.00492358       0.00145877
Ag       2.76825034       3.36509162      21.10379098  T      -0.00129450       0.00526047      -0.00005262
Ag       7.19134003       4.15192001      18.78943989  F      -0.13090735       0.02628189       0.03155817
Ag       2.87653997       1.66077001      18.78943989  F      -0.06612342      -0.01275950       0.02142282
Ag       4.31480002       4.15192001      18.78943989  F       0.00231461       0.02915870       0.07740874
Ag       5.75307002       1.66077001      18.78943989  F      -0.03067074       0.00739563       0.14372601
Ag       4.31479999       2.49115000      16.44076002  F      -0.00183754      -0.00937156      -0.03750122
Ag       0.00000000       0.00000000      16.44076002  F       0.00308920       0.00768296      -0.06797991
Ag       1.43827000       2.49115000      16.44076002  F       0.00444217      -0.01137844      -0.07374546
Ag       2.87652999       0.00000000      16.44076002  F      -0.00089935       0.01137762      -0.04385607
C        5.17903213       2.84826969       2.39218024  T       0.01353186       0.01480786      -0.02926500
O        5.63968449       4.07567487       2.13155050  T       0.04649756      -0.02155604      -0.00573132
O        3.88848666       2.60122198       2.21471233  T       0.04752637      -0.01854545       0.00232289
O        5.95508025       1.93238390       2.75274562  T       0.07575118      -0.05921641      -0.02057204
20
Lattice="5.7530685 0.0 0.0 2.87653425 4.98230319 0.0 0.0 0.0 23.48680104" Properties=species:S:1:pos:R:3:move_mask:L:1:forces:R:3 energy=-74.44098866 stress="0.007480217027518369 0.0003556020432475905 -0.0023669582434091654 0.0003556020432475905 0.0080633342493472 0.000839655411603919 -0.0023669582434091654 0.000839655411603919 0.0042921309428209575" free_energy=-74.44107829 pbc="T T T"
Ag       3.88021662       2.48119740      23.38821331  T      -0.00865470       0.01074060      -0.00023469
Ag       5.66144338       0.17324729      23.44565099  T       0.00189773       0.01506752       0.00286770
Ag       7.78582358       3.63259143       2.18445828  T       0.04370738      -0.01633464      -0.00375092
Ag       5.62887606       4.88084780      23.48253725  T      -0.00178881       0.00740883       0.00100549
Ag       5.67522718       3.28805325      21.18803743  T      -0.00101449       0.00454333       0.00118772
Ag       1.39192072       0.85797747      21.17137190  T      -0.00004987       0.00444317      -0.00049998
Ag       4.22337367       0.83296417      21.13724018  T      -0.00075781       0.00515134       0.00148293
Ag       2.76821876       3.36522006      21.10378957  T      -0.00149958       0.00557679       0.00012925
Ag       7.19134003       4.15192001      18.78943989  F      -0.13127417       0.02669883       0.03097495
Ag       2.87653997       1.66077001      18.78943989  F      -0.06638054      -0.01242811       0.02086964
Ag       4.31480002       4.15192001      18.78943989  F       0.00199996       0.02945335       0.07685202
Ag       5.75307002       1.66077001      18.78943989  F      -0.03107604       0.00770962       0.14322885
Ag       4.31479999       2.49115000      16.44076002  F      -0.00217162      -0.00912588      -0.03750953
Ag       0.00000000       0.00000000      16.44076002  F       0.00276332       0.00794694      -0.06798046
Ag       1.43827000       2.49115000      16.44076002  F       0.00413731      -0.01113611      -0.07369572
Ag       2.87652999       0.00000000      16.44076002  F      -0.00121281       0.01164964      -0.04384542
C        5.17936250       2.84863115       2.39146601  T       0.09607789      -0.07516277       0.00877437
O        5.64081958       4.07514864       2.13141052  T       0.04292979      -0.01512264      -0.00732240
O        3.88964688       2.60076929       2.21476917  T       0.04000253      -0.01710459       0.00277551
O        5.95692949       1.93093829       2.75224347  T       0.01236451       0.02002479      -0.05530931
20
Lattice="5.7530685 0.0 0.0 2.87653425 4.98230319 0.0 0.0 0.0 23.48680104" Properties=species:S:1:pos:R:3:move_mask:L:1:forces:R:3 energy=-74.44137783000001 stress="0.0074131241623470335 0.0004813058872466604 -0.002418596663871629 0.0004813058872466604 0.007909263938499233 0.000903266731777291 -0.002418596663871629 0.000903266731777291 0.004331223624106449" free_energy=-74.44146153 pbc="T T T"
Ag       3.87998098       2.48148986      23.38820697  T      -0.00755877       0.01098605       0.00378582
Ag       5.66149507       0.17365758      23.44572897  T       0.00161088       0.01316522       0.00007714
Ag       7.78701369       3.63214666       2.18435611  T       0.04891191      -0.01164637      -0.00680419
Ag       5.62882736       4.88104954      23.48256473  T      -0.00126033       0.00549165       0.00297238
Ag       5.67519960       3.28817696      21.18806985  T      -0.00070246       0.00428624       0.00095555
Ag       1.39191934       0.85809844      21.17135828  T       0.00030491       0.00415765      -0.00033625
Ag       4.22335299       0.83310442      21.13728058  T      -0.00051915       0.00489138       0.00118762
Ag       2.76817797       3.36537192      21.10379310  T      -0.00124450       0.00517878      -0.00021179
Ag       7.19134003       4.15192001      18.78943989  F      -0.13107647       0.02649725       0.03200218
Ag       2.87653997       1.66077001      18.78943989  F      -0.06614904      -0.01255413       0.02187131
Ag       4.31480002       4.15192001      18.78943989  F       0.00229482       0.02927695       0.07785610
Ag       5.75307002       1.66077001      18.78943989  F      -0.03074545       0.00759880       0.14419108
Ag       4.31479999       2.49115000      16.44076002  F      -0.00186539      -0.00935134      -0.03741417